 DBCSR| CPU Multiplication driver                                           XSMM (U)
 DBCSR| Multrec recursion limit                                              512 (U)
 DBCSR| Multiplication stack size                                           1000 (D)
 DBCSR| Maximum elements for images                                    UNLIMITED (U)
 DBCSR| Multiplicative factor virtual images                                   1 (U)
 DBCSR| Use multiplication densification                                       T (D)
 DBCSR| Multiplication size stacks                                             3 (U)
 DBCSR| Use memory pool for CPU allocation                                     F (U)
 DBCSR| Number of 3D layers                                               SINGLE (U)
 DBCSR| Use MPI memory allocation                                              F (U)
 DBCSR| Use RMA algorithm                                                      F (U)
 DBCSR| Use Communication thread                                               T (U)
 DBCSR| Communication thread load                                             87 (D)
 DBCSR| MPI: My process id                                                     0
 DBCSR| MPI: Number of processes                                             144
 DBCSR| OMP: Current number of threads                                         1
 DBCSR| OMP: Max number of threads                                             1
 DBCSR| Split modifier for TAS multiplication algorithm                  1.0E+00 (U)


  **** **** ******  **  PROGRAM STARTED AT               2024-09-13 04:09:19.899
 ***** ** ***  *** **   PROGRAM STARTED ON                              nid01983
 **    ****   ******    PROGRAM STARTED BY                              bsertcan
 ***** **    ** ** **   PROGRAM PROCESS ID                                  7311
  **** **  *******  **  PROGRAM STARTED IN /scratch/snx3000/bsertcan/MFU_sp/rsca
                                           n/br/kr/rep29

 CP2K| version string:                 CP2K version 2024.2 (Development Version)
 CP2K| source code revision number:                                  git:42d1e6b
 CP2K| cp2kflags: omp libint fftw3 libxc parallel scalapack xsmm                
 CP2K| is freely available from                            https://www.cp2k.org/
 CP2K| Program compiled at                         Tue Sep  3 22:59:39 CEST 2024
 CP2K| Program compiled on                                              daint106
 CP2K| Program compiled for                                                local
 CP2K| Data directory path                             /users/bsertcan/cp2k/data
 CP2K| Input file name                                                 input.inp

 GLOBAL| Force Environment number                                              1
 GLOBAL| Basis set file name                                    BASIS_MOLOPT_UZH
 GLOBAL| Potential file name                                       POTENTIAL_UZH
 GLOBAL| MM Potential file name                                     MM_POTENTIAL
 GLOBAL| Coordinate file name                                         rep_29.xyz
 GLOBAL| Method name                                                        CP2K
 GLOBAL| Project name                                                 Replica_29
 GLOBAL| Run type                                                         ENERGY
 GLOBAL| FFT library                                                       FFTW3
 GLOBAL| Diagonalization library                                       ScaLAPACK
 GLOBAL| DGEMM library                                                      BLAS
 GLOBAL| Orthonormality check for eigenvectors                          DISABLED
 GLOBAL| Matrix multiplication library                                 ScaLAPACK
 GLOBAL| All-to-all communication in single precision                          F
 GLOBAL| FFTs using library dependent lengths                                  F
 GLOBAL| Grid backend                                                       AUTO
 GLOBAL| Global print level                                                  LOW
 GLOBAL| MPI I/O enabled                                                       T
 GLOBAL| Total number of message passing processes                           144
 GLOBAL| Number of threads for this process                                    1
 GLOBAL| This output is from process                                           0
 GLOBAL| Stack size for threads created by OpenMP (OMP_STACKSIZE)             5M
 GLOBAL| CPU model name                Intel(R) Xeon(R) CPU E5-2690 v3 @ 2.60GHz
 GLOBAL| CPUID                                                              1002

 MEMORY| system memory details [Kb]
 MEMORY|                        rank 0           min           max       average
 MEMORY| MemTotal             65740148      65740148      65740148      65740148
 MEMORY| MemFree              60958828      60911484      61021496      60961971
 MEMORY| Buffers                  7220          6832          7392          6913
 MEMORY| Cached                1823136       1783292       1853840       1823510
 MEMORY| Slab                   217120        213780        218184        216102
 MEMORY| SReclaimable            48920         47620         49440         48576
 MEMORY| MemLikelyFree        62838104      62818912      62859248      62840972


 *******************************************************************************
 *******************************************************************************
 **                                                                           **
 **     #####                         ##              ##                      **
 **    ##   ##            ##          ##              ##                      **
 **   ##     ##                       ##            ######                    **
 **   ##     ##  ##   ##  ##   #####  ##  ##   ####   ##    #####    #####    **
 **   ##     ##  ##   ##  ##  ##      ## ##   ##      ##   ##   ##  ##   ##   **
 **   ##  ## ##  ##   ##  ##  ##      ####     ###    ##   ######   ######    **
 **    ##  ###   ##   ##  ##  ##      ## ##      ##   ##   ##       ##        **
 **     #######   #####   ##   #####  ##  ##  ####    ##    #####   ##        **
 **           ##                                                    ##        **
 **                                                                           **
 **                                                ... make the atoms dance   **
 **                                                                           **
 **            Copyright (C) by CP2K developers group (2000-2024)             **
 **                      J. Chem. Phys. 152, 194103 (2020)                    **
 **                                                                           **
 *******************************************************************************


 TOTAL NUMBERS AND MAXIMUM NUMBERS

  Total number of            - Atomic kinds:                                   6
                             - Atoms:                                        409
                             - Shell sets:                                   409
                             - Shells:                                      3617
                             - Primitive Cartesian functions:               2052
                             - Cartesian basis functions:                  13634
                             - Spherical basis functions:                  11621

  Maximum angular momentum of- Orbital basis functions:                        3
                             - Local part of the GTH pseudopotential:          2
                             - Non-local part of the GTH pseudopotential:      4

  AUX_FIT ADMM-Basis: 
  Total number of            - Shell sets:                                  2799
                             - Shells:                                      2799
                             - Primitive Cartesian functions:               3609
                             - Cartesian basis functions:                   7546
                             - Spherical basis functions:                   6985
                               Maximum angular momentum                        3


 SCF PARAMETERS         Density guess:                                   RESTART
                        --------------------------------------------------------
                        max_scf:                                              10
                        max_scf_history:                                       0
                        max_diis:                                              4
                        --------------------------------------------------------
                        eps_scf:                                        1.00E-06
                        eps_scf_history:                                0.00E+00
                        eps_diis:                                       1.00E-01
                        eps_eigval:                                     1.00E-05
                        --------------------------------------------------------
                        level_shift [a.u.]:                             0.000000
                        --------------------------------------------------------
                        Outer loop SCF in use 
                        No variables optimised in outer loop
                        eps_scf                                         1.00E-06
                        max_scf                                               10
                        No outer loop optimization
                        step_size                                       5.00E-01

 Number of electrons:                                                       2056
 Number of occupied orbitals:                                               1028
 Number of molecular orbitals:                                              1028

 Number of orbital functions:                                              11621
 Number of independent orbital functions:                                  11621

 Extrapolation method: initial_guess

 *** WARNING in qs_initial_guess.F:306 :: User requested to restart the   ***
 *** wavefunction from the file named: Replica_29-RESTART.wfn. This file  ***
 *** does not exist. Please check the existence of the file or change     ***
 *** properly the value of the keyword WFN_RESTART_FILE_NAME. Calculation ***
 *** continues using ATOMIC GUESS.                                        ***



 SCF WAVEFUNCTION OPTIMIZATION

  ----------------------------------- OT ---------------------------------------
  Minimizer      : DIIS                : direct inversion
                                         in the iterative subspace
                                         using   7 DIIS vectors
                                         safer DIIS on
  Preconditioner : FULL_SINGLE_INVERSE : inversion of 
                                         H + eS - 2*(Sc)(c^T*H*c+const)(Sc)^T
  Precond_solver : DEFAULT
  stepsize       :    0.08000000                  energy_gap     :    0.08000000
  eps_taylor     :   0.10000E-15                  max_taylor     :             4
  ----------------------------------- OT ---------------------------------------

  Step     Update method      Time    Convergence         Total energy    Change
  ------------------------------------------------------------------------------
     1 OT DIIS     0.80E-01    6.7     0.01135611     -4967.6277082112 -4.97E+03
     2 OT DIIS     0.80E-01    5.2     0.00703707     -5041.7994387424 -7.42E+01
     3 OT DIIS     0.80E-01    5.2     0.00686643     -5076.7023298966 -3.49E+01
     4 OT DIIS     0.80E-01    5.3     0.00608980     -5094.0770283552 -1.74E+01
     5 OT DIIS     0.80E-01    5.2     0.00344697     -5131.4602299350 -3.74E+01
     6 OT DIIS     0.80E-01    5.2     0.00255589     -5143.9052704912 -1.24E+01
     7 OT DIIS     0.80E-01    5.2     0.00194440     -5151.2908590948 -7.39E+00
     8 OT DIIS     0.80E-01    5.2     0.00130768     -5158.1049621229 -6.81E+00
     9 OT DIIS     0.80E-01    5.2     0.00103735     -5160.9129267917 -2.81E+00
    10 OT DIIS     0.80E-01    5.3     0.00076388     -5163.4279129771 -2.51E+00

  Leaving inner SCF loop after reaching    10 steps.


  Electronic density on regular grids:      -2055.9999999678        0.0000000322
  Core density on regular grids:             2055.9999998396       -0.0000001604
  Total charge density on r-space grids:       -0.0000001282
  Total charge density g-space grids:          -0.0000001282

  Overlap energy of the core charge distribution:               0.00004742609243
  Self energy of the core charge distribution:              -9698.45125378793819
  Core Hamiltonian energy:                                   2879.90788514053156
  Hartree energy:                                            2709.69920083900297
  Exchange-correlation energy:                              -1054.58379259474555

  Total energy:                                             -5163.42791297705662

  outer SCF iter =    1 RMS gradient =   0.76E-03 energy =      -5163.4279129771

  ----------------------------------- OT ---------------------------------------
  Minimizer      : DIIS                : direct inversion
                                         in the iterative subspace
                                         using   7 DIIS vectors
                                         safer DIIS on
  Preconditioner : FULL_SINGLE_INVERSE : inversion of 
                                         H + eS - 2*(Sc)(c^T*H*c+const)(Sc)^T
  Precond_solver : DEFAULT
  stepsize       :    0.08000000                  energy_gap     :    0.08000000
  eps_taylor     :   0.10000E-15                  max_taylor     :             4
  ----------------------------------- OT ---------------------------------------

  Step     Update method      Time    Convergence         Total energy    Change
  ------------------------------------------------------------------------------
     1 OT DIIS     0.80E-01   13.3     0.00118506     -5164.8573807405 -1.43E+00
     2 OT DIIS     0.80E-01    5.2     0.00101201     -5166.0931106781 -1.24E+00
     3 OT DIIS     0.80E-01    5.2     0.00057918     -5167.8633455694 -1.77E+00
     4 OT DIIS     0.80E-01    5.2     0.00046989     -5168.2491509927 -3.86E-01
     5 OT DIIS     0.80E-01    5.2     0.00039293     -5168.3891632667 -1.40E-01
     6 OT DIIS     0.80E-01    5.2     0.00029602     -5168.5186610854 -1.29E-01
     7 OT DIIS     0.80E-01    5.2     0.00021702     -5168.6159953022 -9.73E-02
     8 OT DIIS     0.80E-01    5.3     0.00016410     -5168.6618184941 -4.58E-02
     9 OT DIIS     0.80E-01    6.0     0.00009919     -5168.6952879096 -3.35E-02
    10 OT DIIS     0.80E-01    5.2     0.00007443     -5168.7071792482 -1.19E-02

  Leaving inner SCF loop after reaching    10 steps.


  Electronic density on regular grids:      -2055.9999999678        0.0000000322
  Core density on regular grids:             2055.9999998396       -0.0000001604
  Total charge density on r-space grids:       -0.0000001282
  Total charge density g-space grids:          -0.0000001282

  Overlap energy of the core charge distribution:               0.00004742609243
  Self energy of the core charge distribution:              -9698.45125378793819
  Core Hamiltonian energy:                                   2874.63125492947711
  Hartree energy:                                            2710.34995389502137
  Exchange-correlation energy:                              -1055.23718171084033

  Total energy:                                             -5168.70717924818837

  outer SCF iter =    2 RMS gradient =   0.74E-04 energy =      -5168.7071792482

  ----------------------------------- OT ---------------------------------------
  Minimizer      : DIIS                : direct inversion
                                         in the iterative subspace
                                         using   7 DIIS vectors
                                         safer DIIS on
  Preconditioner : FULL_SINGLE_INVERSE : inversion of 
                                         H + eS - 2*(Sc)(c^T*H*c+const)(Sc)^T
  Precond_solver : DEFAULT
  stepsize       :    0.08000000                  energy_gap     :    0.08000000
  eps_taylor     :   0.10000E-15                  max_taylor     :             4
  ----------------------------------- OT ---------------------------------------

  Step     Update method      Time    Convergence         Total energy    Change
  ------------------------------------------------------------------------------
     1 OT DIIS     0.80E-01   13.2     0.00009983     -5168.7100678929 -2.89E-03
     2 OT DIIS     0.80E-01    5.1     0.00007786     -5168.7174266056 -7.36E-03
     3 OT DIIS     0.80E-01    5.4     0.00006489     -5168.7209651723 -3.54E-03
     4 OT DIIS     0.80E-01    5.4     0.00003165     -5168.7258522900 -4.89E-03
     5 OT DIIS     0.80E-01    5.2     0.00001186     -5168.7263095834 -4.57E-04
     6 OT DIIS     0.80E-01    5.3     0.00000687     -5168.7263730344 -6.35E-05
     7 OT DIIS     0.80E-01    5.2     0.00000382     -5168.7264091208 -3.61E-05
     8 OT DIIS     0.80E-01    5.3     0.00000200     -5168.7264184285 -9.31E-06
     9 OT DIIS     0.80E-01    5.2     0.00000119     -5168.7264212100 -2.78E-06
    10 OT DIIS     0.80E-01    5.2     0.00000072     -5168.7264220413 -8.31E-07

  *** SCF run converged in    10 steps ***


  Electronic density on regular grids:      -2055.9999999678        0.0000000322
  Core density on regular grids:             2055.9999998396       -0.0000001604
  Total charge density on r-space grids:       -0.0000001282
  Total charge density g-space grids:          -0.0000001282

  Overlap energy of the core charge distribution:               0.00004742609243
  Self energy of the core charge distribution:              -9698.45125378793819
  Core Hamiltonian energy:                                   2874.56153518311294
  Hartree energy:                                            2710.39266974394377
  Exchange-correlation energy:                              -1055.22942060646847

  Total energy:                                             -5168.72642204125805

  outer SCF iter =    3 RMS gradient =   0.72E-06 energy =      -5168.7264220413
  outer SCF loop converged in   3 iterations or   30 steps


 ENERGY| Total FORCE_EVAL ( QS ) energy [a.u.]:            -5168.726422041258047

 -------------------------------------------------------------------------------
 -                                                                             -
 -                                DBCSR STATISTICS                             -
 -                                                                             -
 -------------------------------------------------------------------------------
 COUNTER                                    TOTAL       BLAS       SMM       ACC
 flops    14 x     4 x     4               129024       0.0%    100.0%      0.0%     
 flops     4 x     4 x   976               187392       0.0%    100.0%      0.0%     
 flops    41 x     4 x     4               314880       0.0%    100.0%      0.0%     
 flops     4 x     4 x   974               374016       0.0%    100.0%      0.0%     
 flops     4 x     4 x   962               461760       0.0%    100.0%      0.0%     
 flops    29 x     4 x     4              1787328       0.0%    100.0%      0.0%     
 flops    14 x    32 x     4             16515072       0.0%    100.0%      0.0%     
 flops    14 x     4 x    32             16515072       0.0%    100.0%      0.0%     
 flops    32 x     4 x   976             23986176       0.0%    100.0%      0.0%     
 flops     4 x    32 x   976             23986176       0.0%    100.0%      0.0%     
 flops    41 x    32 x     4             40304640       0.0%    100.0%      0.0%     
 flops    41 x     4 x    32             40304640       0.0%    100.0%      0.0%     
 flops    32 x     4 x   974             47874048       0.0%    100.0%      0.0%     
 flops     4 x    32 x   974             47874048       0.0%    100.0%      0.0%     
 flops    32 x     4 x   962             59105280       0.0%    100.0%      0.0%     
 flops     4 x    32 x   962             59105280       0.0%    100.0%      0.0%     
 flops    14 x     4 x    14            111390720       0.0%    100.0%      0.0%     
 flops    68 x    68 x    68            154700544       0.0%    100.0%      0.0%     
 flops    29 x    32 x     4            228777984       0.0%    100.0%      0.0%     
 flops    29 x     4 x    32            228777984       0.0%    100.0%      0.0%     
 flops    41 x    14 x    68            393442560       0.0%    100.0%      0.0%     
 flops    64 x    68 x    68            436801536       0.0%    100.0%      0.0%     
 flops    68 x    64 x    68            436801536       0.0%    100.0%      0.0%     
 flops    68 x    68 x    64            436801536       0.0%    100.0%      0.0%     
 flops    14 x    14 x    68            510515712       0.0%    100.0%      0.0%     
 flops    41 x     4 x    14            521945088       0.0%    100.0%      0.0%     
 flops    14 x     4 x    41            521945088       0.0%    100.0%      0.0%     
 flops    41 x    14 x    64           1110896640       0.0%    100.0%      0.0%     
 flops    64 x    64 x    68           1233321984       0.0%    100.0%      0.0%     
 flops    64 x    68 x    64           1233321984       0.0%    100.0%      0.0%     
 flops    68 x    64 x    64           1233321984       0.0%    100.0%      0.0%     
 flops   963 x    68 x    68           1282438656       0.0%    100.0%      0.0%     
 flops    14 x    14 x    64           1441456128       0.0%    100.0%      0.0%     
 flops    41 x     4 x    41           1584281984       0.0%    100.0%      0.0%     
 flops    14 x     4 x    29           1730534400       0.0%    100.0%      0.0%     
 flops    29 x     4 x    14           1730534400       0.0%    100.0%      0.0%     
 flops    68 x    68 x    96           1747206144       0.0%    100.0%      0.0%     
 flops    68 x    96 x    68           1747206144       0.0%    100.0%      0.0%     
 flops    96 x    68 x    68           1747206144       0.0%    100.0%      0.0%     
 flops    68 x    68 x   976           2112095232       0.0%    100.0%      0.0%     
 flops   976 x    68 x    68           2599501824       0.0%    100.0%      0.0%     
 flops    64 x    64 x    64           3482320896       0.0%    100.0%      0.0%     
 flops   963 x    64 x    68           3621003264       0.0%    100.0%      0.0%     
 flops   963 x    68 x    64           3621003264       0.0%    100.0%      0.0%     
 flops    14 x    41 x    68           3773301504       0.0%    100.0%      0.0%     
 flops    68 x    68 x   974           4215534336       0.0%    100.0%      0.0%     
 flops    14 x    32 x    32           4359979008       0.0%    100.0%      0.0%     
 flops    41 x    14 x    96           4443586560       0.0%    100.0%      0.0%     
 flops    64 x    68 x    96           4933287936       0.0%    100.0%      0.0%     
 flops    64 x    96 x    68           4933287936       0.0%    100.0%      0.0%     
 flops    68 x    64 x    96           4933287936       0.0%    100.0%      0.0%     
 flops    68 x    96 x    64           4933287936       0.0%    100.0%      0.0%     
 flops    96 x    64 x    68           4933287936       0.0%    100.0%      0.0%     
 flops    96 x    68 x    64           4933287936       0.0%    100.0%      0.0%     
 flops   974 x    68 x    68           5188349952       0.0%    100.0%      0.0%     
 flops    68 x    68 x   962           5204496960       0.0%    100.0%      0.0%     
 flops    14 x    14 x    96           5765824512       0.0%    100.0%      0.0%     
 flops    64 x    68 x   976           5963563008       0.0%    100.0%      0.0%     
 flops    68 x    64 x   976           5963563008       0.0%    100.0%      0.0%     
 flops    32 x    32 x   976           6332350464       0.0%    100.0%      0.0%     
 flops    41 x    41 x    68           6345465696       0.0%    100.0%      0.0%     
 flops    14 x    29 x    68           6366183936       0.0%    100.0%      0.0%     
 flops   962 x    68 x    68           6405534720       0.0%    100.0%      0.0%     
 flops   976 x    64 x    68           7339769856       0.0%    100.0%      0.0%     
 flops   976 x    68 x    64           7339769856       0.0%    100.0%      0.0%     
 flops    41 x     4 x    29           8415684928       0.0%    100.0%      0.0%     
 flops    29 x     4 x    41           8415684928       0.0%    100.0%      0.0%     
 flops   963 x    68 x   976           8436434688       0.0%    100.0%      0.0%     
 flops    29 x    14 x    68           8510331648       0.0%    100.0%      0.0%     
 flops   963 x    64 x    64          10224009216       0.0%    100.0%      0.0%     
 flops    41 x    32 x    32          10640424960       0.0%    100.0%      0.0%     
 flops    14 x    41 x    64          10654027776       0.0%    100.0%      0.0%     
 flops    64 x    68 x   974          11902685184       0.0%    100.0%      0.0%     
 flops    68 x    64 x   974          11902685184       0.0%    100.0%      0.0%     
 flops    32 x    32 x   974          12638748672       0.0%    100.0%      0.0%     
 flops    64 x    64 x    96          13929283584       0.0%    100.0%      0.0%     
 flops    64 x    96 x    64          13929283584       0.0%    100.0%      0.0%     
 flops    96 x    64 x    64          13929283584       0.0%    100.0%      0.0%     
 flops   963 x    68 x    96          14484013056       0.0%    100.0%      0.0%     
 flops   963 x    96 x    68          14484013056       0.0%    100.0%      0.0%     
 flops   974 x    64 x    68          14649458688       0.0%    100.0%      0.0%     
 flops   974 x    68 x    64          14649458688       0.0%    100.0%      0.0%     
 flops    64 x    68 x   962          14695050240       0.0%    100.0%      0.0%     
 flops    68 x    64 x   962          14695050240       0.0%    100.0%      0.0%     
 flops    32 x    32 x   962          15603793920       0.0%    100.0%      0.0%     
 flops   963 x    68 x   974          16838293824       0.0%    100.0%      0.0%     
 flops    64 x    64 x   976          16838295552       0.0%    100.0%      0.0%     
 flops   976 x    68 x   976          17100644352       0.0%    100.0%      0.0%     
 flops    41 x    41 x    64          17916609024       0.0%    100.0%      0.0%     
 flops    14 x    29 x    64          17975107584       0.0%    100.0%      0.0%     
 flops   962 x    64 x    68          18086215680       0.0%    100.0%      0.0%     
 flops   962 x    68 x    64          18086215680       0.0%    100.0%      0.0%     
 flops    96 x    96 x    68          19733151744       0.0%    100.0%      0.0%     
 flops    68 x    96 x    96          19733151744       0.0%    100.0%      0.0%     
 flops    96 x    68 x    96          19733151744       0.0%    100.0%      0.0%     
 flops   976 x    64 x    64          20724056064       0.0%    100.0%      0.0%     
 flops   963 x    68 x   962          20788550640       0.0%    100.0%      0.0%     
 flops   963 x    64 x   976          23820521472       0.0%    100.0%      0.0%     
 flops    68 x    96 x   976          23854252032       0.0%    100.0%      0.0%     
 flops    96 x    68 x   976          23854252032       0.0%    100.0%      0.0%     
 flops    29 x    14 x    64          24029171712       0.0%    100.0%      0.0%     
 flops    29 x    41 x    68          28141832232       0.0%    100.0%      0.0%     
 flops    14 x    32 x    14          28516024320       0.0%    100.0%      0.0%     
 flops   976 x    68 x    96          29359079424       0.0%    100.0%      0.0%     
 flops   976 x    96 x    68          29359079424       0.0%    100.0%      0.0%     
 flops    29 x     4 x    29          30062009232       0.0%    100.0%      0.0%     
 flops    64 x    64 x   974          33607581696       0.0%    100.0%      0.0%     
 flops   976 x    68 x   974          34131204096       0.0%    100.0%      0.0%     
 flops   974 x    68 x   976          34131204096       0.0%    100.0%      0.0%     
 flops    41 x    29 x    68          38020329592       0.0%    100.0%      0.0%     
 flops   963 x    64 x    96          40896036864       0.0%    100.0%      0.0%     
 flops   963 x    96 x    64          40896036864       0.0%    100.0%      0.0%     
 flops   974 x    64 x    64          41363177472       0.0%    100.0%      0.0%     
 flops    64 x    64 x   962          41491906560       0.0%    100.0%      0.0%     
 flops   976 x    68 x   962          42138370560       0.0%    100.0%      0.0%     
 flops   962 x    68 x   976          42138370560       0.0%    100.0%      0.0%     
 flops    14 x    41 x    96          42616111104       0.0%    100.0%      0.0%     
 flops   963 x    64 x   974          47543417856       0.0%    100.0%      0.0%     
 flops    68 x    96 x   974          47610740736       0.0%    100.0%      0.0%     
 flops    96 x    68 x   974          47610740736       0.0%    100.0%      0.0%     
 flops   976 x    64 x   976          48284172288       0.0%    100.0%      0.0%     
 flops   962 x    64 x    64          51066961920       0.0%    100.0%      0.0%     
 flops    96 x    96 x    64          55717134336       0.0%    100.0%      0.0%     
 flops    64 x    96 x    96          55717134336       0.0%    100.0%      0.0%     
 flops    96 x    64 x    96          55717134336       0.0%    100.0%      0.0%     
 flops   974 x    96 x    68          58597834752       0.0%    100.0%      0.0%     
 flops   974 x    68 x    96          58597834752       0.0%    100.0%      0.0%     
 flops   963 x    64 x   962          58697084160       0.0%    100.0%      0.0%     
 flops    68 x    96 x   962          58780200960       0.0%    100.0%      0.0%     
 flops    96 x    68 x   962          58780200960       0.0%    100.0%      0.0%     
 flops    29 x    32 x    32          60397387776       0.0%    100.0%      0.0%     
 flops    64 x    96 x   976          67353182208       0.0%    100.0%      0.0%     
 flops    96 x    64 x   976          67353182208       0.0%    100.0%      0.0%     
 flops   974 x    68 x   974          68122526208       0.0%    100.0%      0.0%     
 flops    41 x    41 x    96          71666436096       0.0%    100.0%      0.0%     
 flops    14 x    29 x    96          71900430336       0.0%    100.0%      0.0%     
 flops   962 x    68 x    96          72344862720       0.0%    100.0%      0.0%     
 flops   962 x    96 x    68          72344862720       0.0%    100.0%      0.0%     
 flops    29 x    41 x    64          79459291008       0.0%    100.0%      0.0%     
 flops   976 x    64 x    96          82896224256       0.0%    100.0%      0.0%     
 flops   976 x    96 x    64          82896224256       0.0%    100.0%      0.0%     
 flops   962 x    68 x   974          84104042880       0.0%    100.0%      0.0%     
 flops   974 x    68 x   962          84104042880       0.0%    100.0%      0.0%     
 flops   963 x    96 x   976          95282085888       0.0%    100.0%      0.0%     
 flops    29 x    14 x    96          96116686848       0.0%    100.0%      0.0%     
 flops   976 x    64 x   974          96370458624       0.0%    100.0%      0.0%     
 flops   974 x    64 x   976          96370458624       0.0%    100.0%      0.0%     
 flops   962 x    68 x   962         103834816800       0.0%    100.0%      0.0%     
 flops    41 x    29 x    64         107351518848       0.0%    100.0%      0.0%     
 flops   976 x    64 x   962         118978928640       0.0%    100.0%      0.0%     
 flops   962 x    64 x   976         118978928640       0.0%    100.0%      0.0%     
 flops    29 x    29 x    68         125347403424       0.0%    100.0%      0.0%     
 flops    41 x    32 x    14         133617942528       0.0%    100.0%      0.0%     
 flops    14 x    32 x    41         133617942528       0.0%    100.0%      0.0%     
 flops    64 x    96 x   974         134430326784       0.0%    100.0%      0.0%     
 flops    96 x    64 x   974         134430326784       0.0%    100.0%      0.0%     
 flops   963 x    96 x    96         163584147456       0.0%    100.0%      0.0%     
 flops   974 x    96 x    64         165452709888       0.0%    100.0%      0.0%     
 flops   974 x    64 x    96         165452709888       0.0%    100.0%      0.0%     
 flops    64 x    96 x   962         165967626240       0.0%    100.0%      0.0%     
 flops    96 x    64 x   962         165967626240       0.0%    100.0%      0.0%     
 flops   963 x    96 x   974         190173671424       0.0%    100.0%      0.0%     
 flops   974 x    64 x   974         192345956352       0.0%    100.0%      0.0%     
 flops   976 x    96 x   976         193136689152       0.0%    100.0%      0.0%     
 flops   962 x    64 x    96         204267847680       0.0%    100.0%      0.0%     
 flops   962 x    96 x    64         204267847680       0.0%    100.0%      0.0%     
 flops    96 x    96 x    96         222868537344       0.0%    100.0%      0.0%     
 flops   963 x    96 x   962         234788336640       0.0%    100.0%      0.0%     
 flops   962 x    64 x   974         237470238720       0.0%    100.0%      0.0%     
 flops   974 x    64 x   962         237470238720       0.0%    100.0%      0.0%     
 flops    96 x    96 x   976         269412728832       0.0%    100.0%      0.0%     
 flops   962 x    64 x   962         293180659200       0.0%    100.0%      0.0%     
 flops    29 x    41 x    96         317837164032       0.0%    100.0%      0.0%     
 flops   976 x    96 x    96         331584897024       0.0%    100.0%      0.0%     
 flops    29 x    29 x    64         353922080256       0.0%    100.0%      0.0%     
 flops   974 x    96 x   976         385481834496       0.0%    100.0%      0.0%     
 flops   976 x    96 x   974         385481834496       0.0%    100.0%      0.0%     
 flops    41 x    32 x    41         405576187904       0.0%    100.0%      0.0%     
 flops    41 x    29 x    96         429406075392       0.0%    100.0%      0.0%     
 flops    14 x    32 x    29         443016806400       0.0%    100.0%      0.0%     
 flops    29 x    32 x    14         443016806400       0.0%    100.0%      0.0%     
 flops   976 x    96 x   962         475915714560       0.0%    100.0%      0.0%     
 flops   962 x    96 x   976         475915714560       0.0%    100.0%      0.0%     
 flops    96 x    96 x   974         537721307136       0.0%    100.0%      0.0%     
 flops   974 x    96 x    96         661810839552       0.0%    100.0%      0.0%     
 flops    96 x    96 x   962         663870504960       0.0%    100.0%      0.0%     
 flops   974 x    96 x   974         769383825408       0.0%    100.0%      0.0%     
 flops   962 x    96 x    96         817071390720       0.0%    100.0%      0.0%     
 flops   974 x    96 x   962         949880954880       0.0%    100.0%      0.0%     
 flops   962 x    96 x   974         949880954880       0.0%    100.0%      0.0%     
 flops   962 x    96 x   962        1172722636800       0.0%    100.0%      0.0%     
 flops    29 x    29 x    96        1415688321024       0.0%    100.0%      0.0%     
 flops    41 x    32 x    29        2154415341568       0.0%    100.0%      0.0%     
 flops    29 x    32 x    41        2154415341568       0.0%    100.0%      0.0%     
 flops    29 x    32 x    29        7695874363392       0.0%    100.0%      0.0%     
 flops inhomo. stacks               1014255147648     100.0%      0.0%      0.0%
 flops total                        33.167340E+12       3.1%     96.9%      0.0%
 flops max/rank                    265.228854E+09       3.1%     96.9%      0.0%
 matmuls inhomo. stacks                     23283     100.0%      0.0%      0.0%
 matmuls total                          279569580       0.0%    100.0%      0.0%
 number of processed stacks               2777013       0.8%     99.2%      0.0%
 average stack size                                     1.1     101.5       0.0
 marketing flops                    46.389598E+12
 -------------------------------------------------------------------------------
 # multiplications                            660
 max memory usage/rank             582.463488E+06
 # max total images/rank                        1
 # max 3D layers                                1
 # MPI messages exchanged                 2090880
 MPI messages size (bytes):
  total size                         1.629616E+12
  min size                           0.000000E+00
  max size                           7.620608E+06
  average size                     779.392188E+03
 MPI breakdown and total messages size (bytes):
             size <=      128               13860                        0
       128 < size <=     8192                   0                        0
      8192 < size <=    32768               63657               2081591424
     32768 < size <=   131072              948915              57352141440
    131072 < size <=  4194304              894960             593974411360
   4194304 < size <= 16777216              169488             976212467912
  16777216 < size                               0                        0
 -------------------------------------------------------------------------------
 -                                                                             -
 -                      DBCSR MESSAGE PASSING PERFORMANCE                      -
 -                                                                             -
 -------------------------------------------------------------------------------
 ROUTINE             CALLS      AVE VOLUME [Bytes]
 MP_Bcast              196                     12.
 MP_Allreduce         3890                     31.
 MP_Alltoall          2456                 149086.
 MP_ISend            31668                 368846.
 MP_IRecv            31668                 366446.
 -------------------------------------------------------------------------------

 -------------------------------------------------------------------------------
 -                                                                             -
 -                                DBM STATISTICS                               -
 -                                                                             -
 -------------------------------------------------------------------------------
    M  x    N  x    K                                          COUNT     PERCENT
 -------------------------------------------------------------------------------

 -------------------------------------------------------------------------------
 -                                                                             -
 -                                GRID STATISTICS                              -
 -                                                                             -
 -------------------------------------------------------------------------------
 LP    KERNEL             BACKEND                              COUNT     PERCENT
 6     collocate ortho    CPU                                8258989      21.54%
 8     collocate ortho    CPU                                8163881      21.29%
 6     integrate ortho    CPU                                7992570      20.85%
 8     integrate ortho    CPU                                7900530      20.61%
 5     collocate ortho    CPU                                1468346       3.83%
 7     collocate ortho    CPU                                1468346       3.83%
 5     integrate ortho    CPU                                1420980       3.71%
 7     integrate ortho    CPU                                1420980       3.71%
 4     collocate ortho    CPU                                  95108       0.25%
 4     integrate ortho    CPU                                  92040       0.24%
 0     collocate general  CPU                                  58896       0.15%
 -------------------------------------------------------------------------------

 MEMORY| Estimated peak process memory [MiB]                                 556

 -------------------------------------------------------------------------------
 -                                                                             -
 -                         MESSAGE PASSING PERFORMANCE                         -
 -                                                                             -
 -------------------------------------------------------------------------------

 ROUTINE             CALLS      AVE VOLUME [Bytes]
 MP_Group                4
 MP_Bcast             3827                3857647.
 MP_Allreduce         8734                   2633.
 MP_Sync                32
 MP_Alltoall          1050               15222912.
 MP_SendRecv         17732                  98624.
 MP_ISendRecv        17160                  98624.
 MP_Wait             28430
 MP_comm_split          28
 MP_ISend            10290                 527336.
 MP_IRecv            10290                 527366.
 -------------------------------------------------------------------------------


 -------------------------------------------------------------------------------
 -                                                                             -
 -                           R E F E R E N C E S                               -
 -                                                                             -
 -------------------------------------------------------------------------------
 
 CP2K version 2024.2 (Development Version), the CP2K developers group (2024).
 CP2K is freely available from https://www.cp2k.org/ .
 
 T. D. Kuehne, M. Iannuzzi, M. Del Ben, V. V. Rybkin, P. Seewald, F. Stein, T. 
 Laino, R. Z. Khaliullin, O. Schuett, F. Schiffmann, D. Golze, J. Wilhelm, S. 
 Chulkov, M. H. Bani-Hashemian, V. Weber, U. Borstnik, M. Taillefumier, A. S. 
 Jakobovits, A. Lazzaro, H. Pabst, T. Mueller, R. Schade, M. Guidon, S. 
 Andermatt, N. Holmberg, G. K. Schenter, A. Hehn, A. Bussy, F. Belleflamme, G. 
 Tabacchi, A. Gloess, M. Lass, I. Bethune, C. J. Mundy, C. Plessl, M. Watkins, 
 J. VandeVondele, M. Krack, J. Hutter.
 J. Chem. Phys. 152, 194103 (2020).
 CP2K: An electronic structure and molecular dynamics software package - 
 Quickstep: Efficient and accurate electronic structure calculations.
 https://doi.org/10.1063/5.0007045

 S. Lehtola, C. Steigemann, M. J. T. Oliveira, M. A. L. Marques.
 SoftwareX 7, 1-5 (2018).
 Recent developments in libxc - A comprehensive library of functionals for 
 density functional theory.
 https://doi.org/10.1016/j.softx.2017.11.002

 O. Schuett, P. Messmer, J. Hutter, J. VandeVondele.
 Electronic Structure Calculations on Graphics Processing Units, 173-190 (2016).
 GPU-Accelerated Sparse Matrix-Matrix Multiplication for Linear Scaling Density 
 Functional Theory.
 https://doi.org/10.1002/9781118670712.ch8

 A. Heinecke, G. Henry, M. Hutchinson, H. Pabst.
 Proceedings of Intl. Supercomputing Conference, 981-991 (2016).
 LIBXSMM: Accelerating Small Matrix Multiplications by Runtime Code Generation.
 https://doi.org/10.1109/SC.2016.83

 J. Hutter, M. Iannuzzi, F. Schiffmann, J. VandeVondele.
 WIREs Comput Mol Sci. 4, 15-25 (2014).
 CP2K: atomistic simulations of condensed matter systems.
 https://doi.org/10.1002/wcms.1159

 U. Borstnik, J. VandeVondele, V. Weber, J. Hutter.
 Parallel Comput. 40, 47-58 (2014).
 Sparse matrix multiplication: The distributed block-compressed sparse row 
 library.
 https://doi.org/10.1016/j.parco.2014.03.012

 M. A. L. Marques, M. J. T. Oliveira, T. Burnus.
 Comput. Phys. Commun. 183, 2272-2281 (2012).
 LIBXC: A library of exchange and correlation functionals for density functional 
 theory.
 https://doi.org/10.1016/j.cpc.2012.05.007

 J. VandeVondele, J. Hutter.
 J. Chem. Phys. 127, 114105 (2007).
 Gaussian basis sets for accurate calculations on molecular systems in gas and 
 condensed phases.
 https://doi.org/10.1063/1.2770708

 J. VandeVondele, M. Krack, F. Mohamed, M. Parrinello, T. Chassaing, J. Hutter.
 Comput. Phys. Commun. 167, 103-128 (2005).
 QUICKSTEP: Fast and accurate density functional calculations using a mixed 
 Gaussian and plane waves approach.
 https://doi.org/10.1016/j.cpc.2004.12.014

 M. Krack.
 Theor. Chem. Acc. 114, 145-152 (2005).
 Pseudopotentials for H to Kr optimized for gradient-corrected 
 exchange-correlation functionals.
 https://doi.org/10.1007/s00214-005-0655-y

 M. Frigo, S. G. Johnson.
 Proc. IEEE 93, 216-231 (2005).
 The design and implementation of FFTW3.
 https://doi.org/10.1109/JPROC.2004.840301

 J. VandeVondele, J. Hutter.
 J. Chem. Phys. 118, 4365-4369 (2003).
 An efficient orbital transformation method for electronic structure 
 calculations.
 https://doi.org/10.1063/1.1543154

 C. Hartwigsen, S. Goedecker, J. Hutter.
 Phys. Rev. B 58, 3641-3662 (1998).
 Relativistic separable dual-space Gaussian pseudopotentials from H to Rn.
 https://doi.org/10.1103/PhysRevB.58.3641

 G. Lippert, J. Hutter, M. Parrinello.
 Mol. Phys. 92, 477-487 (1997).
 A hybrid Gaussian and plane wave density functional scheme.
 https://doi.org/10.1080/002689797170220

 S. Goedecker, M. Teter, J. Hutter.
 Phys. Rev. B 54, 1703-1710 (1996).
 Separable dual-space Gaussian pseudopotentials.
 https://doi.org/10.1103/PhysRevB.54.1703


 -------------------------------------------------------------------------------
 -                                                                             -
 -                                T I M I N G                                  -
 -                                                                             -
 -------------------------------------------------------------------------------
 SUBROUTINE                       CALLS  ASD         SELF TIME        TOTAL TIME
                                MAXIMUM       AVERAGE  MAXIMUM  AVERAGE  MAXIMUM
 CP2K                                 1  1.0    0.016    0.036  171.242  171.243
 qs_energies                          1  2.0    0.006    0.008  169.585  169.586
 scf_env_do_scf                       1  3.0    0.000    0.000  166.849  166.851
 scf_env_do_scf_inner_loop           30  4.0    0.001    0.021  149.280  149.567
 qs_ks_update_qs_env                 33  5.0    0.000    0.000   94.199   94.357
 rebuild_ks_matrix                   30  6.0    0.000    0.000   94.115   94.274
 qs_ks_build_kohn_sham_matrix        30  7.0    0.004    0.005   94.115   94.274
 sum_up_and_integrate                30  8.0    0.001    0.002   47.601   47.608
 integrate_v_rspace                  60  9.0    0.003    0.003   47.408   47.415
 qs_rho_update_rho_low               31  5.0    0.000    0.000   46.699   46.726
 calculate_rho_elec                  62  6.0    0.140    0.144   46.699   46.726
 fft_wrap_pw1pw2                    791  9.9    0.017    0.024   38.745   39.925
 qs_vxc_create                       30  8.0    0.001    0.001   38.444   38.464
 xc_vxc_pw_create                    30  9.0    0.276    0.335   38.443   38.463
 fft_wrap_pw1pw2_500                425 11.3    1.622    1.657   36.661   37.812
 fft3d_ps                           791 11.9   13.971   14.381   29.923   31.182
 grid_integrate_task_list            60 10.0   28.690   30.117   28.690   30.117
 grid_collocate_task_list            62  7.0   25.058   26.424   25.058   26.424
 xc_rho_set_and_dset_create          30 10.0    0.281    0.326   25.251   25.717
 density_rs2pw                       62  7.0    0.005    0.005   20.982   22.675
 dbcsr_multiply_generic             660 10.0    0.036    0.039   19.583   19.906
 xc_pw_derive                       180 11.0    0.004    0.004   18.314   19.471
 qs_scf_new_mos                      30  5.0    0.000    0.000   19.158   19.466
 qs_scf_loop_do_ot                   30  6.0    0.000    0.000   19.158   19.466
 ot_scf_mini                         30  7.0    0.001    0.001   17.840   18.114
 init_scf_loop                        3  4.0    0.000    0.000   17.436   17.448
 multiply_cannon                    660 11.0    0.052    0.062   15.636   16.438
 xc_functional_eval                  60 11.0    0.001    0.001   15.923   16.363
 libxc_lda_eval                      60 12.0   15.922   16.361   15.923   16.362
 potential_pw2rs                     60 10.0    0.012    0.013   16.230   16.255
 multiply_cannon_loop               660 12.0    0.069    0.073   14.620   15.445
 xc_pw_divergence                    30 10.0    0.002    0.003   12.645   13.767
 mp_alltoall_z22v                   791 13.9   11.507   12.727   11.507   12.727
 multiply_cannon_multrec           7920 13.0    9.468   10.664    9.472   10.669
 transfer_rs2pw                     249  8.0    0.004    0.006    8.938   10.656
 transfer_pw2rs                     240 11.0    0.004    0.005    9.725    9.737
 mp_waitall_1                     92060 13.9    7.306    9.489    7.306    9.489
 ot_mini                             30  8.0    0.000    0.000    9.027    9.331
 yz_to_x                            337 12.6    2.092    2.426    8.249    9.284
 mp_waitany                       10290 11.5    6.216    8.121    6.216    8.121
 x_to_yz                            332 13.4    2.278    2.338    7.622    7.826
 prepare_preconditioner               3  5.0    0.000    0.000    7.281    7.315
 make_preconditioner                  3  6.0    0.000    0.000    7.281    7.315
 transfer_rs2pw_500                  63  9.0    2.057    2.551    5.146    6.928
 transfer_pw2rs_500                  60 12.0    2.265    2.609    5.539    6.007
 qs_ot_get_p                         33  7.8    0.000    0.000    5.063    5.407
 apply_preconditioner_dbcsr          33 10.0    0.000    0.000    4.630    4.781
 apply_single                        33 11.0    0.000    0.000    4.630    4.781
 mp_alltoall_d11v                   650 11.7    3.064    4.773    3.064    4.773
 qs_ot_get_derivative                30  9.0    0.000    0.000    4.481    4.762
 ot_diis_step                        30  9.0    0.002    0.002    4.524    4.524
 multiply_cannon_metrocomm3        7920 13.0    0.022    0.026    0.994    4.483
 make_full_inverse_cholesky           3  7.0    0.000    0.000    4.389    4.436
 multiply_cannon_metrocomm1        7920 13.0    0.029    0.032    3.283    4.344
 rs_gather_matrices                  60 10.0    0.126    0.152    2.485    4.272
 qs_ot_p2m_diag                      28  9.0    0.017    0.022    3.976    3.984
 cp_dbcsr_syevd                      28 10.0    0.001    0.002    3.810    3.810
 cp_fm_syevd                         28 11.0    0.000    0.000    3.734    3.735
 cp_fm_redistribute_end              28 12.0    1.863    3.715    1.865    3.716
 cp_fm_syevd_base                    28 12.0    1.850    3.703    1.850    3.703
 -------------------------------------------------------------------------------

 The number of warnings for this run is : 1
 
 -------------------------------------------------------------------------------
  **** **** ******  **  PROGRAM ENDED AT                 2024-09-13 04:12:11.679
 ***** ** ***  *** **   PROGRAM RAN ON                                  nid01983
 **    ****   ******    PROGRAM RAN BY                                  bsertcan
 ***** **    ** ** **   PROGRAM PROCESS ID                                  7311
  **** **  *******  **  PROGRAM STOPPED IN /scratch/snx3000/bsertcan/MFU_sp/rsca
                                           n/br/kr/rep29
