 DBCSR| CPU Multiplication driver                                           XSMM
 DBCSR| Multrec recursion limit                                              512
 DBCSR| Multiplication stack size                                          30000
 DBCSR| Maximum elements for images                                    UNLIMITED
 DBCSR| Multiplicative factor virtual images                                   1
 DBCSR| Use multiplication densification                                       F
 DBCSR| Multiplication size stacks                                             3
 DBCSR| Use memory pool for CPU allocation                                     F
 DBCSR| Number of 3D layers                                               SINGLE
 DBCSR| Use MPI memory allocation                                              F
 DBCSR| Use RMA algorithm                                                      F
 DBCSR| Use Communication thread                                               T
 DBCSR| Communication thread load                                             75
 DBCSR| MPI: My node id                                                        0
 DBCSR| MPI: Number of nodes                                                1536
 DBCSR| OMP: Current number of threads                                         4
 DBCSR| OMP: Max number of threads                                             4
 DBCSR| ACC: Number of devices/node                                            1
 DBCSR| ACC: Number of stack-buffers per thread                                8
 DBCSR| ACC: Avoid driver after busy                                           F
 DBCSR| ACC: Process inhomogeneous stacks                                      T
 DBCSR| ACC: Min. flop for processing                                          0
 DBCSR| ACC: Min. flop for sorting                                          4000
 DBCSR| ACC: Number of binning bins                                         4096
 DBCSR| ACC: Size of binning bins                                             16
 DBCSR| Split modifier for TAS multiplication algorithm                  1.0E+00


  **** **** ******  **  PROGRAM STARTED AT               2022-10-27 09:55:43.051
 ***** ** ***  *** **   PROGRAM STARTED ON                              nid02265
 **    ****   ******    PROGRAM STARTED BY                                 ahehn
 ***** **    ** ** **   PROGRAM PROCESS ID                                  1637
  **** **  *******  **  PROGRAM STARTED IN /scratch/snx3000/ahehn/OKTOBER_2022_M
                                           FU_MOFS/Br_Kr_MOF/PBE0_18

 CP2K| version string:                 CP2K version 2022.1 (Development Version)
 CP2K| source code revision number:                                  git:d96d251
 CP2K| cp2kflags: omp libint fftw3 libxc pexsi elpa elpa_nvidia_gpu parallel mpi
 CP2K|            3 scalapack cosma xsmm dbcsr_acc max_contr=4 plumed2 spglib si
 CP2K|            irius libvori libbqb offload_cuda no_offload_pw spla_gemm_offl
 CP2K|            loading
 CP2K| is freely available from                            https://www.cp2k.org/
 CP2K| Program compiled at                         Fri Aug 26 13:48:55 CEST 2022
 CP2K| Program compiled on                                              daint102
 CP2K| Program compiled for                                        CRAY-XC50-gnu
 CP2K| Data directory path      /scratch/snx3000/ahehn/cp2k_master_26august/data
 CP2K| Input file name                                    input_PBE0_TZbasis.inp

 GLOBAL| Force Environment number                                              1
 GLOBAL| Basis set file name                                      BASIS_ADMM_UZH
 GLOBAL| Potential file name                                       POTENTIAL_UZH
 GLOBAL| MM Potential file name                                     MM_POTENTIAL
 GLOBAL| Coordinate file name                                   pbesol_rep18.xyz
 GLOBAL| Method name                                                        CP2K
 GLOBAL| Project name                                                 br_kr_PBE0
 GLOBAL| Run type                                                         ENERGY
 GLOBAL| FFT library                                                       FFTW3
 GLOBAL| Diagonalization library                                       ScaLAPACK
 GLOBAL| Orthonormality check for eigenvectors                          DISABLED
 GLOBAL| Matrix multiplication library                                     COSMA
 GLOBAL| All-to-all communication in single precision                          F
 GLOBAL| FFTs using library dependent lengths                                  F
 GLOBAL| Grid backend                                                       AUTO
 GLOBAL| Global print level                                               MEDIUM
 GLOBAL| MPI I/O enabled                                                       T
 GLOBAL| Total number of message passing processes                          1536
 GLOBAL| Number of threads for this process                                    4
 GLOBAL| This output is from process                                           0
 GLOBAL| Stack size for threads created by OpenMP (OMP_STACKSIZE)        default
 GLOBAL| CPU model name                Intel(R) Xeon(R) CPU E5-2690 v3 @ 2.60GHz
 GLOBAL| CPUID                                                              1002

 MEMORY| system memory details [Kb]
 MEMORY|                        rank 0           min           max       average
 MEMORY| MemTotal             65740148      65740148      65740148      65740148
 MEMORY| MemFree              60371376      60371376      60649472      60506720
 MEMORY| Buffers                  7936          5884          7936          6472
 MEMORY| Cached                2321432       2177164       2329456       2262786
 MEMORY| Slab                   271444        236568        271444        246655
 MEMORY| SReclaimable            53840         47596         53840         50273
 MEMORY| MemLikelyFree        62754584      62754584      62880252      62826252


 *** Fundamental physical constants (SI units) ***

 *** Literature: B. J. Mohr and B. N. Taylor,
 ***             CODATA recommended values of the fundamental physical
 ***             constants: 2006, Web Version 5.1
 ***             http://physics.nist.gov/constants

 Speed of light in vacuum [m/s]                             2.99792458000000E+08
 Magnetic constant or permeability of vacuum [N/A**2]       1.25663706143592E-06
 Electric constant or permittivity of vacuum [F/m]          8.85418781762039E-12
 Planck constant (h) [J*s]                                  6.62606896000000E-34
 Planck constant (h-bar) [J*s]                              1.05457162825177E-34
 Elementary charge [C]                                      1.60217648700000E-19
 Electron mass [kg]                                         9.10938215000000E-31
 Electron g factor [ ]                                     -2.00231930436220E+00
 Proton mass [kg]                                           1.67262163700000E-27
 Fine-structure constant                                    7.29735253760000E-03
 Rydberg constant [1/m]                                     1.09737315685270E+07
 Avogadro constant [1/mol]                                  6.02214179000000E+23
 Boltzmann constant [J/K]                                   1.38065040000000E-23
 Atomic mass unit [kg]                                      1.66053878200000E-27
 Bohr radius [m]                                            5.29177208590000E-11

 *** Conversion factors ***

 [u] -> [a.u.]                                              1.82288848426455E+03
 [Angstrom] -> [Bohr] = [a.u.]                              1.88972613288564E+00
 [a.u.] = [Bohr] -> [Angstrom]                              5.29177208590000E-01
 [a.u.] -> [s]                                              2.41888432650478E-17
 [a.u.] -> [fs]                                             2.41888432650478E-02
 [a.u.] -> [J]                                              4.35974393937059E-18
 [a.u.] -> [N]                                              8.23872205491840E-08
 [a.u.] -> [K]                                              3.15774647902944E+05
 [a.u.] -> [kJ/mol]                                         2.62549961709828E+03
 [a.u.] -> [kcal/mol]                                       6.27509468713739E+02
 [a.u.] -> [Pa]                                             2.94210107994716E+13
 [a.u.] -> [bar]                                            2.94210107994716E+08
 [a.u.] -> [atm]                                            2.90362800883016E+08
 [a.u.] -> [eV]                                             2.72113838565563E+01
 [a.u.] -> [Hz]                                             6.57968392072181E+15
 [a.u.] -> [1/cm] (wave numbers)                            2.19474631370540E+05
 [a.u./Bohr**2] -> [1/cm]                                   5.14048714338585E+03
 

 CELL_TOP| Volume [angstrom^3]:                                     10133.786944
 CELL_TOP| Vector a [angstrom    21.640     0.000     0.000   |a| =    21.640000
 CELL_TOP| Vector b [angstrom     0.000    21.640     0.000   |b| =    21.640000
 CELL_TOP| Vector c [angstrom     0.000     0.000    21.640   |c| =    21.640000
 CELL_TOP| Angle (b,c), alpha [degree]:                                90.000000
 CELL_TOP| Angle (a,c), beta  [degree]:                                90.000000
 CELL_TOP| Angle (a,b), gamma [degree]:                                90.000000
 CELL_TOP| Numerically orthorhombic:                                         YES
 CELL_TOP| Periodicity                                                       XYZ

 CELL| Volume [angstrom^3]:                                         10133.786944
 CELL| Vector a [angstrom]:      21.640     0.000     0.000   |a| =    21.640000
 CELL| Vector b [angstrom]:       0.000    21.640     0.000   |b| =    21.640000
 CELL| Vector c [angstrom]:       0.000     0.000    21.640   |c| =    21.640000
 CELL| Angle (b,c), alpha [degree]:                                    90.000000
 CELL| Angle (a,c), beta  [degree]:                                    90.000000
 CELL| Angle (a,b), gamma [degree]:                                    90.000000
 CELL| Numerically orthorhombic:                                             YES
 CELL| Periodicity                                                           XYZ

 CELL_REF| Volume [angstrom^3]:                                     10133.786944
 CELL_REF| Vector a [angstrom    21.640     0.000     0.000   |a| =    21.640000
 CELL_REF| Vector b [angstrom     0.000    21.640     0.000   |b| =    21.640000
 CELL_REF| Vector c [angstrom     0.000     0.000    21.640   |c| =    21.640000
 CELL_REF| Angle (b,c), alpha [degree]:                                90.000000
 CELL_REF| Angle (a,c), beta  [degree]:                                90.000000
 CELL_REF| Angle (a,b), gamma [degree]:                                90.000000
 CELL_REF| Numerically orthorhombic:                                         YES
 CELL_REF| Periodicity                                                       XYZ

 *******************************************************************************
 *******************************************************************************
 **                                                                           **
 **     #####                         ##              ##                      **
 **    ##   ##            ##          ##              ##                      **
 **   ##     ##                       ##            ######                    **
 **   ##     ##  ##   ##  ##   #####  ##  ##   ####   ##    #####    #####    **
 **   ##     ##  ##   ##  ##  ##      ## ##   ##      ##   ##   ##  ##   ##   **
 **   ##  ## ##  ##   ##  ##  ##      ####     ###    ##   ######   ######    **
 **    ##  ###   ##   ##  ##  ##      ## ##      ##   ##   ##       ##        **
 **     #######   #####   ##   #####  ##  ##  ####    ##    #####   ##        **
 **           ##                                                    ##        **
 **                                                                           **
 **                                                ... make the atoms dance   **
 **                                                                           **
 **            Copyright (C) by CP2K developers group (2000-2022)             **
 **                      J. Chem. Phys. 152, 194103 (2020)                    **
 **                                                                           **
 *******************************************************************************

 DFT| Spin restricted Kohn-Sham (RKS) calculation                            RKS
 DFT| Multiplicity                                                             1
 DFT| Number of spin states                                                    1
 DFT| Charge                                                                   0
 DFT| Self-interaction correction (SIC)                                       NO
 DFT| Cutoffs: density                                              1.000000E-10
 DFT|          gradient                                             1.000000E-10
 DFT|          tau                                                  1.000000E-10
 DFT|          cutoff_smoothing_range                               0.000000E+00
 DFT| XC density smoothing                                                  NONE
 DFT| XC derivatives                                                          PW

 FUNCTIONAL| PBE:
 FUNCTIONAL| J.P.Perdew, K.Burke, M.Ernzerhof, Phys. Rev. Letter, vol. 77, n 18,
 FUNCTIONAL|  pp. 3865-3868, (1996)sx=0.750sc=1.000{spin unpolarized}           

 vdW POTENTIAL|                                                   Pair Potential
 vdW POTENTIAL|          DFT-D3 (Version 3.1)
 vdW POTENTIAL|          Potential Form: S. Grimme et al, JCP 132: 154104 (2010)
 vdW POTENTIAL|          Zero Damping
 vdW POTENTIAL|          Cutoff Radius [Bohr]:                             18.90
 vdW POTENTIAL|          s6 Scaling Factor:                               1.0000
 vdW POTENTIAL|          sr6 Scaling Factor:                              1.2870
 vdW POTENTIAL|          s8 Scaling Factor:                               0.9280
 vdW POTENTIAL|          Cutoff for CN calculation:                   0.1000E-05

 QS| Method:                                                                 GPW
 QS| Density plane wave grid type                        NON-SPHERICAL FULLSPACE
 QS| Number of grid levels:                                                    4
 QS| Density cutoff [a.u.]:                                                450.0
 QS| Multi grid cutoff [a.u.]: 1) grid level                               450.0
 QS|                           2) grid level                               150.0
 QS|                           3) grid level                                50.0
 QS|                           4) grid level                                16.7
 QS| Grid level progression factor:                                          3.0
 QS| Relative density cutoff [a.u.]:                                        40.0
 QS| Interaction thresholds: eps_pgf_orb:                                1.0E-30
 QS|                         eps_filter_matrix:                          0.0E+00
 QS|                         eps_core_charge:                            1.0E-17
 QS|                         eps_rho_gspace:                             1.0E-15
 QS|                         eps_rho_rspace:                             1.0E-15
 QS|                         eps_gvg_rspace:                             3.2E-08
 QS|                         eps_ppl:                                    1.0E-02
 QS|                         eps_ppnl:                                   3.2E-10


 ATOMIC KIND INFORMATION

  1. Atomic kind: N                                     Number of atoms:     144

     Orbital Basis Set                                                ccGRB-T-q5

       Number of orbital shell sets:                                           3
       Number of orbital shells:                                               9
       Number of primitive Cartesian functions:                                8
       Number of Cartesian basis functions:                                   34
       Number of spherical basis functions:                                   29
       Norm type:                                                              2

       Normalised Cartesian orbitals:

                        Set   Shell   Orbital            Exponent    Coefficient

                          1       1    1s                8.001103      -0.295114
                                                         2.996738      -0.202467
                                                         1.122400       0.234268
                                                         0.420384       0.220057
                                                         0.157451       0.049699

                          1       2    2s                8.001103       0.256303
                                                         2.996738       0.166365
                                                         1.122400      -0.264789
                                                         0.420384      -0.490882
                                                         0.157451       0.303813

                          1       3    3s                8.001103       0.052719
                                                         2.996738      -1.407489
                                                         1.122400       2.701032
                                                         0.420384      -1.465983
                                                         0.157451       0.303633

                          1       4    2px               8.001103      -0.967531
                                                         2.996738      -0.852122
                                                         1.122400      -0.541047
                                                         0.420384      -0.182850
                                                         0.157451      -0.047429
                          1       4    2py               8.001103      -0.967531
                                                         2.996738      -0.852122
                                                         1.122400      -0.541047
                                                         0.420384      -0.182850
                                                         0.157451      -0.047429
                          1       4    2pz               8.001103      -0.967531
                                                         2.996738      -0.852122
                                                         1.122400      -0.541047
                                                         0.420384      -0.182850
                                                         0.157451      -0.047429

                          1       5    3px               8.001103       0.751163
                                                         2.996738       0.947551
                                                         1.122400       0.401479
                                                         0.420384       0.323033
                                                         0.157451      -0.178277
                          1       5    3py               8.001103       0.751163
                                                         2.996738       0.947551
                                                         1.122400       0.401479
                                                         0.420384       0.323033
                                                         0.157451      -0.178277
                          1       5    3pz               8.001103       0.751163
                                                         2.996738       0.947551
                                                         1.122400       0.401479
                                                         0.420384       0.323033
                                                         0.157451      -0.178277

                          1       6    4px               8.001103      -2.061954
                                                         2.996738      -0.379691
                                                         1.122400      -2.240238
                                                         0.420384       1.078272
                                                         0.157451      -0.157582
                          1       6    4py               8.001103      -2.061954
                                                         2.996738      -0.379691
                                                         1.122400      -2.240238
                                                         0.420384       1.078272
                                                         0.157451      -0.157582
                          1       6    4pz               8.001103      -2.061954
                                                         2.996738      -0.379691
                                                         1.122400      -2.240238
                                                         0.420384       1.078272
                                                         0.157451      -0.157582

                          2       1    1dx2              1.654000       3.970513
                                                         0.469000       0.000000
                          2       1    1dxy              1.654000       6.877130
                                                         0.469000       0.000000
                          2       1    1dxz              1.654000       6.877130
                                                         0.469000       0.000000
                          2       1    1dy2              1.654000       3.970513
                                                         0.469000       0.000000
                          2       1    1dyz              1.654000       6.877130
                                                         0.469000       0.000000
                          2       1    1dz2              1.654000       3.970513
                                                         0.469000       0.000000

                          2       2    2dx2              1.654000       0.000000
                                                         0.469000       0.437484
                          2       2    2dxy              1.654000       0.000000
                                                         0.469000       0.757744
                          2       2    2dxz              1.654000       0.000000
                                                         0.469000       0.757744
                          2       2    2dy2              1.654000       0.000000
                                                         0.469000       0.437484
                          2       2    2dyz              1.654000       0.000000
                                                         0.469000       0.757744
                          2       2    2dz2              1.654000       0.000000
                                                         0.469000       0.437484

                          3       1    1fx3              1.093000       1.798249
                          3       1    1fx2y             1.093000       4.021007
                          3       1    1fx2z             1.093000       4.021007
                          3       1    1fxy2             1.093000       4.021007
                          3       1    1fxyz             1.093000       6.964588
                          3       1    1fxz2             1.093000       4.021007
                          3       1    1fy3              1.093000       1.798249
                          3       1    1fy2z             1.093000       4.021007
                          3       1    1fyz2             1.093000       4.021007
                          3       1    1fz3              1.093000       1.798249

     Auxiliary Fit Basis Set                                         admm-tzp-q5

       Number of orbital shell sets:                                           7
       Number of orbital shells:                                               7
       Number of primitive Cartesian functions:                                9
       Number of Cartesian basis functions:                                   18
       Number of spherical basis functions:                                   17
       Norm type:                                                              2

       Normalised Cartesian orbitals:

                        Set   Shell   Orbital            Exponent    Coefficient

                          1       1    1s                6.213162      -0.926209
                                                         0.716616       0.618274

                          2       1    1s                0.318713       0.302315

                          3       1    1s                0.156356       0.177213

                          4       1    1px               6.434402      -5.795363
                                                         1.908664       3.868591
                          4       1    1py               6.434402      -5.795363
                                                         1.908664       3.868591
                          4       1    1pz               6.434402      -5.795363
                                                         1.908664       3.868591

                          5       1    1px               0.596798       0.747695
                          5       1    1py               0.596798       0.747695
                          5       1    1pz               0.596798       0.747695

                          6       1    1px               0.168824       0.154253
                          6       1    1py               0.168824       0.154253
                          6       1    1pz               0.168824       0.154253

                          7       1    1dx2              0.817000       1.155575
                          7       1    1dxy              0.817000       2.001514
                          7       1    1dxz              0.817000       2.001514
                          7       1    1dy2              0.817000       1.155575
                          7       1    1dyz              0.817000       2.001514
                          7       1    1dz2              0.817000       1.155575

       Atomic covalent radius [Angstrom]:                                  0.750

       Atomic van der Waals radius [Angstrom]:                             1.550

     GTH Potential information for                                   GTH-PBE0-q5

       Description:                       Goedecker-Teter-Hutter pseudopotential
                                           Goedecker et al., PRB 54, 1703 (1996)
                                          Hartwigsen et al., PRB 58, 3641 (1998)
                                                      Krack, TCA 114, 145 (2005)

       Gaussian exponent of the core charge distribution:               6.196924
       Electronic configuration (s p d ...):                       2   3   0   0

       Parameters of the local part of the GTH pseudopotential:

                          rloc        C1          C2          C3          C4
                        0.284051  -12.396524    1.863724

       Parameters of the non-local part of the GTH pseudopotential:

                   l      r(l)      h(i,j,l)

                   0    0.255381   13.630734

  2. Atomic kind: C                                     Number of atoms:     144

     Orbital Basis Set                                                ccGRB-T-q4

       Number of orbital shell sets:                                           3
       Number of orbital shells:                                               9
       Number of primitive Cartesian functions:                                8
       Number of Cartesian basis functions:                                   34
       Number of spherical basis functions:                                   29
       Norm type:                                                              2

       Normalised Cartesian orbitals:

                        Set   Shell   Orbital            Exponent    Coefficient

                          1       1    1s                5.749653      -0.216270
                                                         2.183084      -0.164241
                                                         0.828895       0.163775
                                                         0.314723       0.178127
                                                         0.119497       0.044640

                          1       2    2s                5.749653       0.196404
                                                         2.183084       0.139411
                                                         0.828895      -0.179588
                                                         0.314723      -0.431733
                                                         0.119497       0.254271

                          1       3    3s                5.749653       0.086879
                                                         2.183084      -1.254044
                                                         0.828895       2.272522
                                                         0.314723      -1.219027
                                                         0.119497       0.251278

                          1       4    2px               5.749653      -0.565023
                                                         2.183084      -0.501190
                                                         0.828895      -0.344790
                                                         0.314723      -0.125584
                                                         0.119497      -0.037961
                          1       4    2py               5.749653      -0.565023
                                                         2.183084      -0.501190
                                                         0.828895      -0.344790
                                                         0.314723      -0.125584
                                                         0.119497      -0.037961
                          1       4    2pz               5.749653      -0.565023
                                                         2.183084      -0.501190
                                                         0.828895      -0.344790
                                                         0.314723      -0.125584
                                                         0.119497      -0.037961

                          1       5    3px               5.749653       0.443985
                                                         2.183084       0.617163
                                                         0.828895       0.259667
                                                         0.314723       0.255626
                                                         0.119497      -0.128955
                          1       5    3py               5.749653       0.443985
                                                         2.183084       0.617163
                                                         0.828895       0.259667
                                                         0.314723       0.255626
                                                         0.119497      -0.128955
                          1       5    3pz               5.749653       0.443985
                                                         2.183084       0.617163
                                                         0.828895       0.259667
                                                         0.314723       0.255626
                                                         0.119497      -0.128955

                          1       6    4px               5.749653      -1.292900
                                                         2.183084      -0.116882
                                                         0.828895      -1.654936
                                                         0.314723       0.772732
                                                         0.119497      -0.112465
                          1       6    4py               5.749653      -1.292900
                                                         2.183084      -0.116882
                                                         0.828895      -1.654936
                                                         0.314723       0.772732
                                                         0.119497      -0.112465
                          1       6    4pz               5.749653      -1.292900
                                                         2.183084      -0.116882
                                                         0.828895      -1.654936
                                                         0.314723       0.772732
                                                         0.119497      -0.112465

                          2       1    1dx2              1.097000       1.935401
                                                         0.318000       0.000000
                          2       1    1dxy              1.097000       3.352214
                                                         0.318000       0.000000
                          2       1    1dxz              1.097000       3.352214
                                                         0.318000       0.000000
                          2       1    1dy2              1.097000       1.935401
                                                         0.318000       0.000000
                          2       1    1dyz              1.097000       3.352214
                                                         0.318000       0.000000
                          2       1    1dz2              1.097000       1.935401
                                                         0.318000       0.000000

                          2       2    2dx2              1.097000       0.000000
                                                         0.318000       0.221644
                          2       2    2dxy              1.097000       0.000000
                                                         0.318000       0.383899
                          2       2    2dxz              1.097000       0.000000
                                                         0.318000       0.383899
                          2       2    2dy2              1.097000       0.000000
                                                         0.318000       0.221644
                          2       2    2dyz              1.097000       0.000000
                                                         0.318000       0.383899
                          2       2    2dz2              1.097000       0.000000
                                                         0.318000       0.221644

                          3       1    1fx3              0.761000       0.796288
                          3       1    1fx2y             0.761000       1.780553
                          3       1    1fx2z             0.761000       1.780553
                          3       1    1fxy2             0.761000       1.780553
                          3       1    1fxyz             0.761000       3.084008
                          3       1    1fxz2             0.761000       1.780553
                          3       1    1fy3              0.761000       0.796288
                          3       1    1fy2z             0.761000       1.780553
                          3       1    1fyz2             0.761000       1.780553
                          3       1    1fz3              0.761000       0.796288

     Auxiliary Fit Basis Set                                         admm-tzp-q4

       Number of orbital shell sets:                                           7
       Number of orbital shells:                                               7
       Number of primitive Cartesian functions:                                9
       Number of Cartesian basis functions:                                   18
       Number of spherical basis functions:                                   17
       Norm type:                                                              2

       Normalised Cartesian orbitals:

                        Set   Shell   Orbital            Exponent    Coefficient

                          1       1    1s                8.477503       0.595236
                                                         3.577003       1.575378

                          2       1    1s                0.495726       0.421057

                          3       1    1s                0.159172       0.179601

                          4       1    1px               4.986355       0.952283
                                                         1.664384       2.520356
                          4       1    1py               4.986355       0.952283
                                                         1.664384       2.520356
                          4       1    1pz               4.986355       0.952283
                                                         1.664384       2.520356

                          5       1    1px               0.555716       0.683921
                          5       1    1py               0.555716       0.683921
                          5       1    1pz               0.555716       0.683921

                          6       1    1px               0.158157       0.142168
                          6       1    1py               0.158157       0.142168
                          6       1    1pz               0.158157       0.142168

                          7       1    1dx2              0.550000       0.578155
                          7       1    1dxy              0.550000       1.001394
                          7       1    1dxz              0.550000       1.001394
                          7       1    1dy2              0.550000       0.578155
                          7       1    1dyz              0.550000       1.001394
                          7       1    1dz2              0.550000       0.578155

       Atomic covalent radius [Angstrom]:                                  0.770

       Atomic van der Waals radius [Angstrom]:                             1.700

     GTH Potential information for                                   GTH-PBE0-q4

       Description:                       Goedecker-Teter-Hutter pseudopotential
                                           Goedecker et al., PRB 54, 1703 (1996)
                                          Hartwigsen et al., PRB 58, 3641 (1998)
                                                      Krack, TCA 114, 145 (2005)

       Gaussian exponent of the core charge distribution:               4.321387
       Electronic configuration (s p d ...):                       2   2   0   0

       Parameters of the local part of the GTH pseudopotential:

                          rloc        C1          C2          C3          C4
                        0.340152   -8.756260    1.332124

       Parameters of the non-local part of the GTH pseudopotential:

                   l      r(l)      h(i,j,l)

                   0    0.302558    9.589804

  3. Atomic kind: Zn                                    Number of atoms:      40

     Orbital Basis Set                                               ccGRB-T-q12

       Number of orbital shell sets:                                           3
       Number of orbital shells:                                              11
       Number of primitive Cartesian functions:                               10
       Number of Cartesian basis functions:                                   62
       Number of spherical basis functions:                                   47
       Norm type:                                                              2

       Normalised Cartesian orbitals:

                        Set   Shell   Orbital            Exponent    Coefficient

                          1       1    2s                6.188171      -0.037748
                                                         2.925656       0.114471
                                                         1.383198      -0.158459
                                                         0.653951      -0.106921
                                                         0.309176       0.088305
                                                         0.146173       0.053269
                                                         0.069108       0.059576

                          1       2    3s                6.188171       0.076127
                                                         2.925656      -0.227779
                                                         1.383198       0.359996
                                                         0.653951      -0.099988
                                                         0.309176       0.142557
                                                         0.146173      -0.509390
                                                         0.069108       0.247219

                          1       3    4s                6.188171       0.030393
                                                         2.925656      -0.056855
                                                         1.383198       0.155153
                                                         0.653951      -1.220352
                                                         0.309176       2.104945
                                                         0.146173      -1.258177
                                                         0.069108       0.281577

                          1       4    3px               6.188171       0.029587
                                                         2.925656      -0.054543
                                                         1.383198       0.009702
                                                         0.653951      -0.086940
                                                         0.309176       0.104163
                                                         0.146173      -0.017473
                                                         0.069108       0.048848
                          1       4    3py               6.188171       0.029587
                                                         2.925656      -0.054543
                                                         1.383198       0.009702
                                                         0.653951      -0.086940
                                                         0.309176       0.104163
                                                         0.146173      -0.017473
                                                         0.069108       0.048848
                          1       4    3pz               6.188171       0.029587
                                                         2.925656      -0.054543
                                                         1.383198       0.009702
                                                         0.653951      -0.086940
                                                         0.309176       0.104163
                                                         0.146173      -0.017473
                                                         0.069108       0.048848

                          1       5    4px               6.188171       0.162253
                                                         2.925656      -0.292653
                                                         1.383198       0.423994
                                                         0.653951      -0.282993
                                                         0.309176       0.178854
                                                         0.146173      -0.301121
                                                         0.069108       0.093437
                          1       5    4py               6.188171       0.162253
                                                         2.925656      -0.292653
                                                         1.383198       0.423994
                                                         0.653951      -0.282993
                                                         0.309176       0.178854
                                                         0.146173      -0.301121
                                                         0.069108       0.093437
                          1       5    4pz               6.188171       0.162253
                                                         2.925656      -0.292653
                                                         1.383198       0.423994
                                                         0.653951      -0.282993
                                                         0.309176       0.178854
                                                         0.146173      -0.301121
                                                         0.069108       0.093437

                          1       6    4dx2              6.188171      12.722993
                                                         2.925656       3.783026
                                                         1.383198       0.760058
                                                         0.653951       0.166629
                                                         0.309176       0.021739
                                                         0.146173       0.002434
                                                         0.069108       0.000039
                          1       6    4dxy              6.188171      22.036871
                                                         2.925656       6.552393
                                                         1.383198       1.316459
                                                         0.653951       0.288610
                                                         0.309176       0.037653
                                                         0.146173       0.004216
                                                         0.069108       0.000068
                          1       6    4dxz              6.188171      22.036871
                                                         2.925656       6.552393
                                                         1.383198       1.316459
                                                         0.653951       0.288610
                                                         0.309176       0.037653
                                                         0.146173       0.004216
                                                         0.069108       0.000068
                          1       6    4dy2              6.188171      12.722993
                                                         2.925656       3.783026
                                                         1.383198       0.760058
                                                         0.653951       0.166629
                                                         0.309176       0.021739
                                                         0.146173       0.002434
                                                         0.069108       0.000039
                          1       6    4dyz              6.188171      22.036871
                                                         2.925656       6.552393
                                                         1.383198       1.316459
                                                         0.653951       0.288610
                                                         0.309176       0.037653
                                                         0.146173       0.004216
                                                         0.069108       0.000068
                          1       6    4dz2              6.188171      12.722993
                                                         2.925656       3.783026
                                                         1.383198       0.760058
                                                         0.653951       0.166629
                                                         0.309176       0.021739
                                                         0.146173       0.002434
                                                         0.069108       0.000039

                          1       7    5dx2              6.188171      -1.839256
                                                         2.925656      -0.339830
                                                         1.383198      -0.312016
                                                         0.653951      -0.150926
                                                         0.309176       0.026973
                                                         0.146173       0.039941
                                                         0.069108       0.004626
                          1       7    5dxy              6.188171      -3.185685
                                                         2.925656      -0.588603
                                                         1.383198      -0.540427
                                                         0.653951      -0.261411
                                                         0.309176       0.046719
                                                         0.146173       0.069180
                                                         0.069108       0.008012
                          1       7    5dxz              6.188171      -3.185685
                                                         2.925656      -0.588603
                                                         1.383198      -0.540427
                                                         0.653951      -0.261411
                                                         0.309176       0.046719
                                                         0.146173       0.069180
                                                         0.069108       0.008012
                          1       7    5dy2              6.188171      -1.839256
                                                         2.925656      -0.339830
                                                         1.383198      -0.312016
                                                         0.653951      -0.150926
                                                         0.309176       0.026973
                                                         0.146173       0.039941
                                                         0.069108       0.004626
                          1       7    5dyz              6.188171      -3.185685
                                                         2.925656      -0.588603
                                                         1.383198      -0.540427
                                                         0.653951      -0.261411
                                                         0.309176       0.046719
                                                         0.146173       0.069180
                                                         0.069108       0.008012
                          1       7    5dz2              6.188171      -1.839256
                                                         2.925656      -0.339830
                                                         1.383198      -0.312016
                                                         0.653951      -0.150926
                                                         0.309176       0.026973
                                                         0.146173       0.039941
                                                         0.069108       0.004626

                          1       8    6dx2              6.188171       2.559099
                                                         2.925656       0.969747
                                                         1.383198       0.289238
                                                         0.653951       0.290049
                                                         0.309176      -0.244628
                                                         0.146173      -0.010240
                                                         0.069108       0.015008
                          1       8    6dxy              6.188171       4.432490
                                                         2.925656       1.679651
                                                         1.383198       0.500975
                                                         0.653951       0.502379
                                                         0.309176      -0.423709
                                                         0.146173      -0.017737
                                                         0.069108       0.025995
                          1       8    6dxz              6.188171       4.432490
                                                         2.925656       1.679651
                                                         1.383198       0.500975
                                                         0.653951       0.502379
                                                         0.309176      -0.423709
                                                         0.146173      -0.017737
                                                         0.069108       0.025995
                          1       8    6dy2              6.188171       2.559099
                                                         2.925656       0.969747
                                                         1.383198       0.289238
                                                         0.653951       0.290049
                                                         0.309176      -0.244628
                                                         0.146173      -0.010240
                                                         0.069108       0.015008
                          1       8    6dyz              6.188171       4.432490
                                                         2.925656       1.679651
                                                         1.383198       0.500975
                                                         0.653951       0.502379
                                                         0.309176      -0.423709
                                                         0.146173      -0.017737
                                                         0.069108       0.025995
                          1       8    6dz2              6.188171       2.559099
                                                         2.925656       0.969747
                                                         1.383198       0.289238
                                                         0.653951       0.290049
                                                         0.309176      -0.244628
                                                         0.146173      -0.010240
                                                         0.069108       0.015008

                          2       1    3fx3              5.792200      76.621815
                                                         1.485100       0.000000
                          2       1    3fx2y             5.792200     171.331587
                                                         1.485100       0.000000
                          2       1    3fx2z             5.792200     171.331587
                                                         1.485100       0.000000
                          2       1    3fxy2             5.792200     171.331587
                                                         1.485100       0.000000
                          2       1    3fxyz             5.792200     296.755014
                                                         1.485100       0.000000
                          2       1    3fxz2             5.792200     171.331587
                                                         1.485100       0.000000
                          2       1    3fy3              5.792200      76.621815
                                                         1.485100       0.000000
                          2       1    3fy2z             5.792200     171.331587
                                                         1.485100       0.000000
                          2       1    3fyz2             5.792200     171.331587
                                                         1.485100       0.000000
                          2       1    3fz3              5.792200      76.621815
                                                         1.485100       0.000000

                          2       2    4fx3              5.792200       0.000000
                                                         1.485100       3.584303
                          2       2    4fx2y             5.792200       0.000000
                                                         1.485100       8.014746
                          2       2    4fx2z             5.792200       0.000000
                                                         1.485100       8.014746
                          2       2    4fxy2             5.792200       0.000000
                                                         1.485100       8.014746
                          2       2    4fxyz             5.792200       0.000000
                                                         1.485100      13.881948
                          2       2    4fxz2             5.792200       0.000000
                                                         1.485100       8.014746
                          2       2    4fy3              5.792200       0.000000
                                                         1.485100       3.584303
                          2       2    4fy2z             5.792200       0.000000
                                                         1.485100       8.014746
                          2       2    4fyz2             5.792200       0.000000
                                                         1.485100       8.014746
                          2       2    4fz3              5.792200       0.000000
                                                         1.485100       3.584303

                          3       1    4gx4              4.114400      54.422480
                          3       1    4gx3y             4.114400     143.988349
                          3       1    4gx3z             4.114400     143.988349
                          3       1    4gx2y2            4.114400     185.888159
                          3       1    4gx2yz            4.114400     321.967736
                          3       1    4gx2z2            4.114400     185.888159
                          3       1    4gxy3             4.114400     143.988349
                          3       1    4gxy2z            4.114400     321.967736
                          3       1    4gxyz2            4.114400     321.967736
                          3       1    4gxz3             4.114400     143.988349
                          3       1    4gy4              4.114400      54.422480
                          3       1    4gy3z             4.114400     143.988349
                          3       1    4gy2z2            4.114400     185.888159
                          3       1    4gyz3             4.114400     143.988349
                          3       1    4gz4              4.114400      54.422480

     Auxiliary Fit Basis Set                                        admm-tzp-q12

       Number of orbital shell sets:                                           9
       Number of orbital shells:                                               9
       Number of primitive Cartesian functions:                               12
       Number of Cartesian basis functions:                                   37
       Number of spherical basis functions:                                   31
       Norm type:                                                              2

       Normalised Cartesian orbitals:

                        Set   Shell   Orbital            Exponent    Coefficient

                          1       1    1s                2.657886      -0.987774
                                                         2.380304       2.271689

                          2       1    1s                2.132339       1.257628

                          3       1    1s                0.107296       0.133613

                          4       1    2px               0.196770       0.186805
                          4       1    2py               0.196770       0.186805
                          4       1    2pz               0.196770       0.186805

                          5       1    2px               0.062062       0.044154
                          5       1    2py               0.062062       0.044154
                          5       1    2pz               0.062062       0.044154

                          6       1    2dx2              6.142161      18.805398
                                                         2.712364       5.573431
                          6       1    2dxy              6.142161      32.571905
                                                         2.712364       9.653465
                          6       1    2dxz              6.142161      32.571905
                                                         2.712364       9.653465
                          6       1    2dy2              6.142161      18.805398
                                                         2.712364       5.573431
                          6       1    2dyz              6.142161      32.571905
                                                         2.712364       9.653465
                          6       1    2dz2              6.142161      18.805398
                                                         2.712364       5.573431

                          7       1    2dx2              0.985864       1.605423
                          7       1    2dxy              0.985864       2.780674
                          7       1    2dxz              0.985864       2.780674
                          7       1    2dy2              0.985864       1.605423
                          7       1    2dyz              0.985864       2.780674
                          7       1    2dz2              0.985864       1.605423

                          8       1    2dx2              0.311298       0.213535
                          8       1    2dxy              0.311298       0.369853
                          8       1    2dxz              0.311298       0.369853
                          8       1    2dy2              0.311298       0.213535
                          8       1    2dyz              0.311298       0.369853
                          8       1    2dz2              0.311298       0.213535

                          9       1    3fx3              5.734400      32.297038
                                                         1.461500       2.609112
                          9       1    3fx2y             5.734400      72.218372
                                                         1.461500       5.834153
                          9       1    3fx2z             5.734400      72.218372
                                                         1.461500       5.834153
                          9       1    3fxy2             5.734400      72.218372
                                                         1.461500       5.834153
                          9       1    3fxyz             5.734400     125.085889
                                                         1.461500      10.105049
                          9       1    3fxz2             5.734400      72.218372
                                                         1.461500       5.834153
                          9       1    3fy3              5.734400      32.297038
                                                         1.461500       2.609112
                          9       1    3fy2z             5.734400      72.218372
                                                         1.461500       5.834153
                          9       1    3fyz2             5.734400      72.218372
                                                         1.461500       5.834153
                          9       1    3fz3              5.734400      32.297038
                                                         1.461500       2.609112

       Atomic covalent radius [Angstrom]:                                  1.250

       Atomic van der Waals radius [Angstrom]:                             1.390

     GTH Potential information for                                  GTH-PBE0-q12

       Description:                       Goedecker-Teter-Hutter pseudopotential
                                           Goedecker et al., PRB 54, 1703 (1996)
                                          Hartwigsen et al., PRB 58, 3641 (1998)
                                                      Krack, TCA 114, 145 (2005)

       Gaussian exponent of the core charge distribution:               1.943915
       Electronic configuration (s p d ...):                       2   0  10   0

       Parameters of the local part of the GTH pseudopotential:

                          rloc        C1          C2          C3          C4
                        0.507162

       Parameters of the non-local part of the GTH pseudopotential:

                   l      r(l)      h(i,j,l)

                   0    0.400194   11.478471   -8.791891    3.145082
                                   -8.791891   16.439932   -8.120576
                                    3.145082   -8.120576    6.444849
                   1    0.545277    2.597458   -0.594467
                                   -0.594467    0.703661
                   2    0.252253  -14.484279

  4. Atomic kind: Br                                    Number of atoms:      32

     Orbital Basis Set                                                ccGRB-T-q7

       Number of orbital shell sets:                                           3
       Number of orbital shells:                                               9
       Number of primitive Cartesian functions:                                8
       Number of Cartesian basis functions:                                   34
       Number of spherical basis functions:                                   29
       Norm type:                                                              2

       Normalised Cartesian orbitals:

                        Set   Shell   Orbital            Exponent    Coefficient

                          1       1    1s                4.406095       0.061892
                                                         1.719058      -0.485415
                                                         0.670698       0.212836
                                                         0.261676       0.199275
                                                         0.102094       0.017243

                          1       2    2s                4.406095      -0.059238
                                                         1.719058       0.470986
                                                         0.670698      -0.353549
                                                         0.261676      -0.310054
                                                         0.102094       0.222072

                          1       3    3s                4.406095       0.444298
                                                         1.719058      -1.710134
                                                         0.670698       2.343508
                                                         0.261676      -1.203784
                                                         0.102094       0.255805

                          1       4    2px               4.406095      -0.161307
                                                         1.719058      -0.292533
                                                         0.670698       0.312086
                                                         0.261676       0.141180
                                                         0.102094       0.023927
                          1       4    2py               4.406095      -0.161307
                                                         1.719058      -0.292533
                                                         0.670698       0.312086
                                                         0.261676       0.141180
                                                         0.102094       0.023927
                          1       4    2pz               4.406095      -0.161307
                                                         1.719058      -0.292533
                                                         0.670698       0.312086
                                                         0.261676       0.141180
                                                         0.102094       0.023927

                          1       5    3px               4.406095       0.154337
                                                         1.719058       0.195808
                                                         0.670698      -0.278741
                                                         0.261676      -0.248696
                                                         0.102094       0.115227
                          1       5    3py               4.406095       0.154337
                                                         1.719058       0.195808
                                                         0.670698      -0.278741
                                                         0.261676      -0.248696
                                                         0.102094       0.115227
                          1       5    3pz               4.406095       0.154337
                                                         1.719058       0.195808
                                                         0.670698      -0.278741
                                                         0.261676      -0.248696
                                                         0.102094       0.115227

                          1       6    4px               4.406095       0.567981
                                                         1.719058      -1.545245
                                                         0.670698       2.061639
                                                         0.261676      -0.716176
                                                         0.102094       0.098659
                          1       6    4py               4.406095       0.567981
                                                         1.719058      -1.545245
                                                         0.670698       2.061639
                                                         0.261676      -0.716176
                                                         0.102094       0.098659
                          1       6    4pz               4.406095       0.567981
                                                         1.719058      -1.545245
                                                         0.670698       2.061639
                                                         0.261676      -0.716176
                                                         0.102094       0.098659

                          2       1    2dx2              0.360360       0.275867
                                                         0.105417       0.000000
                          2       1    2dxy              0.360360       0.477815
                                                         0.105417       0.000000
                          2       1    2dxz              0.360360       0.477815
                                                         0.105417       0.000000
                          2       1    2dy2              0.360360       0.275867
                                                         0.105417       0.000000
                          2       1    2dyz              0.360360       0.477815
                                                         0.105417       0.000000
                          2       1    2dz2              0.360360       0.275867
                                                         0.105417       0.000000

                          2       2    3dx2              0.360360       0.000000
                                                         0.105417       0.032100
                          2       2    3dxy              0.360360       0.000000
                                                         0.105417       0.055598
                          2       2    3dxz              0.360360       0.000000
                                                         0.105417       0.055598
                          2       2    3dy2              0.360360       0.000000
                                                         0.105417       0.032100
                          2       2    3dyz              0.360360       0.000000
                                                         0.105417       0.055598
                          2       2    3dz2              0.360360       0.000000
                                                         0.105417       0.032100

                          3       1    3fx3              0.551500       0.385862
                          3       1    3fx2y             0.551500       0.862813
                          3       1    3fx2z             0.551500       0.862813
                          3       1    3fxy2             0.551500       0.862813
                          3       1    3fxyz             0.551500       1.494437
                          3       1    3fxz2             0.551500       0.862813
                          3       1    3fy3              0.551500       0.385862
                          3       1    3fy2z             0.551500       0.862813
                          3       1    3fyz2             0.551500       0.862813
                          3       1    3fz3              0.551500       0.385862

     Auxiliary Fit Basis Set                                         admm-tzp-q7

       Number of orbital shell sets:                                           7
       Number of orbital shells:                                               7
       Number of primitive Cartesian functions:                                9
       Number of Cartesian basis functions:                                   18
       Number of spherical basis functions:                                   17
       Norm type:                                                              2

       Normalised Cartesian orbitals:

                        Set   Shell   Orbital            Exponent    Coefficient

                          1       1    1s                3.138825       0.651711
                                                         2.092544      -1.700759

                          2       1    1s                0.403590       0.360882

                          3       1    1s                0.153121       0.174456

                          4       1    2px               3.850923       3.850876
                                                         3.452668     -10.049573
                          4       1    2py               3.850923       3.850876
                                                         3.452668     -10.049573
                          4       1    2pz               3.850923       3.850876
                                                         3.452668     -10.049573

                          5       1    2px               0.456018       0.534156
                          5       1    2py               0.456018       0.534156
                          5       1    2pz               0.456018       0.534156

                          6       1    2px               0.138130       0.120032
                          6       1    2py               0.138130       0.120032
                          6       1    2pz               0.138130       0.120032

                          7       1    2dx2              0.145158       0.056186
                          7       1    2dxy              0.145158       0.097318
                          7       1    2dxz              0.145158       0.097318
                          7       1    2dy2              0.145158       0.056186
                          7       1    2dyz              0.145158       0.097318
                          7       1    2dz2              0.145158       0.056186

       Atomic covalent radius [Angstrom]:                                  1.140

       Atomic van der Waals radius [Angstrom]:                             1.850

     GTH Potential information for                                   GTH-PBE0-q7

       Description:                       Goedecker-Teter-Hutter pseudopotential
                                           Goedecker et al., PRB 54, 1703 (1996)
                                          Hartwigsen et al., PRB 58, 3641 (1998)
                                                      Krack, TCA 114, 145 (2005)

       Gaussian exponent of the core charge distribution:               2.090438
       Electronic configuration (s p d ...):                       2   5   0   0

       Parameters of the local part of the GTH pseudopotential:

                          rloc        C1          C2          C3          C4
                        0.489065    0.066916

       Parameters of the non-local part of the GTH pseudopotential:

                   l      r(l)      h(i,j,l)

                   0    0.438011    5.966696    0.330508   -1.238394
                                    0.330508   -2.415414    3.197501
                                   -1.238394    3.197501   -2.537416
                   1    0.453835    2.460415    0.522755
                                    0.522755   -0.639556
                   2    0.564300    0.520653

  5. Atomic kind: H                                     Number of atoms:      48

     Orbital Basis Set                                                ccGRB-T-q1

       Number of orbital shell sets:                                           3
       Number of orbital shells:                                               6
       Number of primitive Cartesian functions:                                8
       Number of Cartesian basis functions:                                   15
       Number of spherical basis functions:                                   14
       Norm type:                                                              2

       Normalised Cartesian orbitals:

                        Set   Shell   Orbital            Exponent    Coefficient

                          1       1    1s               11.312016       0.060518
[...]
 flops    14 x    47 x    32          23286251520       0.0%    100.0%      0.0%
 flops    29 x     4 x    29          30503433312       0.0%      0.0%    100.0%
 flops    47 x    47 x    32          37097062400       0.0%    100.0%      0.0%
 flops    14 x    32 x    14          40693137408       0.0%      0.0%    100.0%
 flops    32 x    32 x    14          52143587328       0.0%      0.0%    100.0%
 flops    17 x    31 x    32          54901628928       0.0%      0.0%    100.0%
 flops    14 x    29 x    32          57672007680       0.0%      0.0%    100.0%
 flops    14 x    32 x    32          63461916672       0.0%      0.0%    100.0%
 flops    31 x    17 x    32          69821816832       0.0%      0.0%    100.0%
 flops    29 x    14 x    32          70443663360       0.0%      0.0%    100.0%
 flops    32 x    32 x    32         107374182400       0.0%      0.0%    100.0%
 flops    47 x    32 x    14         113843896320       0.0%    100.0%      0.0%
 flops    14 x    32 x    47         113843896320       0.0%    100.0%      0.0%
 flops    32 x    32 x    47         145877893120       0.0%    100.0%      0.0%
 flops    29 x    47 x    32         157771284480       0.0%    100.0%      0.0%
 flops    47 x    32 x    32         177542266880       0.0%    100.0%      0.0%
 flops    47 x    29 x    32         200647557120       0.0%    100.0%      0.0%
 flops    17 x    17 x    32         275296831488       0.0%      0.0%    100.0%
 flops    47 x    32 x    47         318491852800       0.0%    100.0%      0.0%
 flops    29 x    32 x    14         563708952576       0.0%      0.0%    100.0%
 flops    14 x    32 x    29         563708952576       0.0%      0.0%    100.0%
 flops    32 x    32 x    29         722328354816       0.0%      0.0%    100.0%
 flops    29 x    32 x    32         879117533184       0.0%      0.0%    100.0%
 flops    29 x    29 x    32         890137006080       0.0%      0.0%    100.0%
 flops    47 x    32 x    29        1577042903040       0.0%    100.0%      0.0%
 flops    29 x    32 x    47        1577042903040       0.0%    100.0%      0.0%
 flops    29 x    32 x    29        7808878927872       0.0%      0.0%    100.0%
 flops inhomo. stacks                           0       0.0%      0.0%      0.0%
 flops total                        16.794493E+12       0.0%     26.6%     73.4%
 flops max/rank                     22.142994E+09       0.0%     33.8%     66.2%
 matmuls inhomo. stacks                         0       0.0%      0.0%      0.0%
 matmuls total                          333796056       0.0%     16.1%     83.9%
 number of processed stacks              77597058       0.0%     27.2%     72.8%
 average stack size                                     0.0       2.6       5.0
 marketing flops                    18.736455E+12
 -------------------------------------------------------------------------------
 # multiplications                            197
 max memory usage/rank               3.770958E+09
 # max total images/rank                        3
 # max 3D layers                                1
 # MPI messages exchanged                56584704
 MPI messages size (bytes):
  total size                         3.114095E+12
  min size                           0.000000E+00
  max size                         518.992000E+03
  average size                      55.034227E+03
 MPI breakdown and total messages size (bytes):
             size <=      128            27088944                   380928
       128 < size <=     8192             5890696              45276475616
      8192 < size <=    32768             7557431             221389168768
     32768 < size <=   131072             9694737             519976274528
    131072 < size <=  4194304             6352896            2327464862624
   4194304 < size <= 16777216                   0                        0
  16777216 < size                               0                        0
 -------------------------------------------------------------------------------

 *** WARNING in dbcsr_mm.F:290 :: Using a non-square number of MPI ranks   ***
 *** might lead to poor performance. Used ranks: 1536 Suggested: 1521 3025 ***

 -------------------------------------------------------------------------------
 -                                                                             -
 -                      DBCSR MESSAGE PASSING PERFORMANCE                      -
 -                                                                             -
 -------------------------------------------------------------------------------
 ROUTINE             CALLS      AVE VOLUME [Bytes]
 MP_Bcast               87                     12.
 MP_Allreduce          887                     12.
 MP_Alltoall          1346                4213059.
 MP_ISend            74668                  29755.
 MP_IRecv            74904                  29440.
 -------------------------------------------------------------------------------

 -------------------------------------------------------------------------------
 -                                                                             -
 -                                DBM STATISTICS                               -
 -                                                                             -
 -------------------------------------------------------------------------------
    M  x    N  x    K                                          COUNT     PERCENT
 -------------------------------------------------------------------------------

 -------------------------------------------------------------------------------
 -                                                                             -
 -                                GRID STATISTICS                              -
 -                                                                             -
 -------------------------------------------------------------------------------
 LP    KERNEL             BACKEND                              COUNT     PERCENT
 2     collocate ortho    GPU                               36245704      15.25%
 2     integrate ortho    GPU                               34357473      14.45%
 1     collocate ortho    GPU                               28971551      12.19%
 1     integrate ortho    GPU                               28442169      11.97%
 3     collocate ortho    GPU                               26842351      11.29%
 3     integrate ortho    GPU                               24807033      10.44%
 0     collocate ortho    GPU                               13018350       5.48%
 0     integrate ortho    GPU                               12972294       5.46%
 4     collocate ortho    GPU                               12071585       5.08%
 4     integrate ortho    GPU                               10987938       4.62%
 5     collocate ortho    GPU                                3261568       1.37%
 5     integrate ortho    GPU                                2946213       1.24%
 0     collocate general  REF                                1256448       0.53%
 0     integrate general  REF                                 628224       0.26%
 6     collocate ortho    GPU                                 442526       0.19%
 6     integrate ortho    GPU                                 398619       0.17%
 7     collocate ortho    GPU                                  26190       0.01%
 7     integrate ortho    GPU                                  23571       0.01%
 8     collocate ortho    GPU                                    720       0.00%
 8     integrate ortho    GPU                                    648       0.00%
 -------------------------------------------------------------------------------

 MEMORY| Estimated peak process memory [MiB]                                3970

 -------------------------------------------------------------------------------
 ----                             MULTIGRID INFO                            ----
 -------------------------------------------------------------------------------
 count for grid        1:      118439938          cutoff [a.u.]          450.00
 count for grid        2:      108028275          cutoff [a.u.]          150.00
 count for grid        3:       78606568          cutoff [a.u.]           50.00
 count for grid        4:       26391305          cutoff [a.u.]           16.67
 total gridlevel count  :      331466086

 -------------------------------------------------------------------------------
 -                                                                             -
 -                         MESSAGE PASSING PERFORMANCE                         -
 -                                                                             -
 -------------------------------------------------------------------------------

 ROUTINE             CALLS      AVE VOLUME [Bytes]
 MP_Group                4
 MP_Bcast             2105                5629564.
 MP_Allreduce          589                  12192.
 MP_Sync               280
 MP_Alltoall           563               12286420.
 MP_ISendRecv       144290                  45517.
 MP_Wait            147198
 MP_comm_split           3
 MP_ISend             8483                 102347.
 MP_IRecv             8767                  99092.
 MP_Recv                46                2087536.
 -------------------------------------------------------------------------------


 -------------------------------------------------------------------------------
 -                                                                             -
 -                           R E F E R E N C E S                               -
 -                                                                             -
 -------------------------------------------------------------------------------
 
 CP2K version 2022.1 (Development Version), the CP2K developers group (2022).
 CP2K is freely available from https://www.cp2k.org/ .

 Kuehne,Thomas D.; Iannuzzi,Marcella; Del Ben,Mauro;
 Rybkin,Vladimir V.; Seewald,Patrick; Stein,Frederick; Laino,Teodoro;
 Khaliullin,Rustam Z.; Schuett,Ole; Schiffmann,Florian; Golze,Dorothea;
 Wilhelm,Jan; Chulkov,Sergey; Bani-Hashemian,Mohammad Hossein;
 Weber,Valery; Borstnik,Urban; Taillefumier,Mathieu;
 Jakobovits,Alice Shoshana; Lazzaro,Alfio; Pabst,Hans; Mueller,Tiziano;
 Schade,Robert; Guidon,Manuel; Andermatt,Samuel; Holmberg,Nico;
 Schenter,Gregory K.; Hehn,Anna; Bussy,Augustin; Belleflamme,Fabian;
 Tabacchi,Gloria; Gloess,Andreas; Lass,Michael; Bethune,Iain;
 Mundy,Christopher J.; Plessl,Christian; Watkins,Matt;
 VandeVondele,Joost; Krack,Matthias; Hutter,Juerg. 
 The Journal of Chemical Physics, 152 (19), (2020). 
 CP2K: An electronic structure and molecular dynamics software package -
 Quickstep: Efficient and accurate electronic structure calculations.
 https://doi.org/10.1063/5.0007045

 Goerigk, Lars; Hansen, Andreas; Bauer, Christoph; Ehrlich, Stephan;
 Najibi, Asim; Grimme, Stefan. , 19 (48), (2017). 
 A look at the density functional theory zoo with the advanced GMTKN55 database
 for general main group thermochemistry, kinetics and noncovalent interactions.
 https://doi.org/10.1039/C7CP04913G

 Schuett, Ole; Messmer, Peter; Hutter, Juerg; VandeVondele, Joost. 
 Electronic Structure Calculations on Graphics Processing Units, John
 Wiley & Sons, Ltd, 173-190 (2016). 
 GPU-Accelerated Sparse Matrix-Matrix Multiplication for
 Linear Scaling Density Functional Theory.
 https://doi.org/10.1002/9781118670712.ch8

 Heinecke, A; Henry, G; Hutchinson, M; Pabst, H. 
 Proceedings of Intl. Supercomputing Conference, 981-991 (2016). 
 LIBXSMM: Accelerating Small Matrix Multiplications
 by Runtime Code Generation.
 https://doi.org/10.1109/SC.2016.83

 Borstnik, U; VandeVondele, J; Weber, V; Hutter, J. 
 PARALLEL COMPUTING, 40 (5-6), 47-58 (2014). 
 Sparse matrix multiplication: The distributed block-compressed sparse
 row library.
 https://doi.org/10.1016/j.parco.2014.03.012

 Hutter, J; Iannuzzi, M; Schiffmann, F; VandeVondele, J. 
 WIREs Comput Mol Sci., 4 (1), 15-25 (2014). 
 CP2K: atomistic simulations of condensed matter systems.
 https://doi.org/10.1002/wcms.1159

 Grimme, S; Ehrlich, S; Goerigk, L. 
 JOURNAL OF COMPUTATIONAL CHEMISTRY, 32, 1456 (2011). 
 Effect of the damping function in dispersion corrected density functional theory.
 https://doi.org/10.1002/jcc.21759

 Guidon, M; Hutter, J; VandeVondele, J. 
 JOURNAL OF CHEMICAL THEORY AND COMPUTATION, 6 (8), 2348-2364 (2010). 
 Auxiliary Density Matrix Methods for Hartree-Fock Exchange Calculations.
 https://doi.org/10.1021/ct1002225

 Grimme, S; Antony, J; Ehrlich, S; Krieg, H. 
 JOURNAL OF CHEMICAL PHYSICS, 132 (15), 154104 (2010). 
 A consistent and accurate ab initio parametrization of density
 functional dispersion correction (DFT-D) for the 94 elements H-Pu.
 https://doi.org/10.1063/1.3382344

 Guidon, M; Hutter, J; VandeVondele, J. 
 JOURNAL OF CHEMICAL THEORY AND COMPUTATION, 5 (11), 3010-3021 (2009). 
 Robust Periodic Hartree-Fock Exchange for Large-Scale Simulations Using
 Gaussian Basis Sets.
 https://doi.org/10.1021/ct900494g

 Guidon, M; Schiffmann, F; Hutter, J; VandeVondele, J. 
 JOURNAL OF CHEMICAL PHYSICS, 128 (21), 214104 (2008). 
 Ab initio molecular dynamics using hybrid density functionals.
 https://doi.org/10.1063/1.2931945

 VandeVondele, J; Hutter, J. 
 JOURNAL OF CHEMICAL PHYSICS, 127 (11), 114105 (2007). 
 Gaussian basis sets for accurate calculations on molecular systems in
 gas and condensed phases.
 https://doi.org/10.1063/1.2770708

 Krack, M. 
 THEORETICAL CHEMISTRY ACCOUNTS, 114 (1-3), 145-152 (2005). 
 Pseudopotentials for H to Kr optimized for gradient-corrected
 exchange-correlation functionals.
 https://doi.org/10.1007/s00214-005-0655-y

 VandeVondele, J; Krack, M; Mohamed, F; Parrinello, M; Chassaing, T;
 Hutter, J. COMPUTER PHYSICS COMMUNICATIONS, 167 (2), 103-128 (2005). 
 QUICKSTEP: Fast and accurate density functional calculations using a
 mixed Gaussian and plane waves approach.
 https://doi.org/10.1016/j.cpc.2004.12.014

 Frigo, M; Johnson, SG. 
 PROCEEDINGS OF THE IEEE, 93 (2), 216-231 (2005). 
 The design and implementation of FFTW3.
 https://doi.org/10.1109/JPROC.2004.840301

 VandeVondele, J; Hutter, J. 
 JOURNAL OF CHEMICAL PHYSICS, 118 (10), 4365-4369 (2003). 
 An efficient orbital transformation method for electronic structure
 calculations.
 https://doi.org/10.1063/1.1543154

 Hartwigsen, C; Goedecker, S; Hutter, J. 
 PHYSICAL REVIEW B, 58 (7), 3641-3662 (1998). 
 Relativistic separable dual-space Gaussian pseudopotentials from H to Rn.
 https://doi.org/10.1103/PhysRevB.58.3641

 Lippert, G; Hutter, J; Parrinello, M. 
 MOLECULAR PHYSICS, 92 (3), 477-487 (1997). 
 A hybrid Gaussian and plane wave density functional scheme.
 https://doi.org/10.1080/002689797170220

 Perdew, JP; Burke, K; Ernzerhof, M. 
 PHYSICAL REVIEW LETTERS, 77 (18), 3865-3868 (1996). 
 Generalized gradient approximation made simple.
 https://doi.org/10.1103/PhysRevLett.77.3865

 Goedecker, S; Teter, M; Hutter, J. 
 PHYSICAL REVIEW B, 54 (3), 1703-1710 (1996). 
 Separable dual-space Gaussian pseudopotentials.
 https://doi.org/10.1103/PhysRevB.54.1703


 -------------------------------------------------------------------------------
 -                                                                             -
 -                                T I M I N G                                  -
 -                                                                             -
 -------------------------------------------------------------------------------
 SUBROUTINE                       CALLS  ASD         SELF TIME        TOTAL TIME
                                MAXIMUM       AVERAGE  MAXIMUM  AVERAGE  MAXIMUM
 CP2K                                 1  1.0    0.244    0.366  373.014  373.023
 qs_energies                          1  2.0    0.002    0.041  370.263  370.330
 scf_env_do_scf                       1  3.0    0.000    0.009  355.908  355.916
 qs_ks_update_qs_env                 10  5.0    0.000    0.000  305.531  305.573
 rebuild_ks_matrix                    9  6.0    0.000    0.000  305.514  305.556
 qs_ks_build_kohn_sham_matrix         9  7.0    0.004    0.064  305.514  305.556
 hfx_ks_matrix                        9  8.0    0.002    0.045  278.851  278.912
 integrate_four_center                9  9.0    1.020    1.692  278.845  278.852
 integrate_four_center_main           9 10.0    1.125    3.940  243.893  257.384
 integrate_four_center_bin          628 11.0  242.769  255.489  242.769  255.489
 scf_env_do_scf_inner_loop            9  4.0    0.025    0.746  219.347  219.462
 init_scf_loop                        1  4.0    0.000    0.027  136.456  136.476
 prepare_preconditioner               1  5.0    0.000    0.000   36.484   36.487
 dbcsr_multiply_generic             197 10.0    0.029    0.055   29.337   32.237
 make_preconditioner                  1  6.0    0.001    0.020   32.022   32.040
 make_full_all                        1  7.0    0.001    0.008   31.469   31.472
 mp_sync                            280 14.3   14.995   30.137   14.995   30.137
 mp_waitall_1                    211240 12.6   21.924   30.054   21.924   30.054
 multiply_cannon                    197 11.0    0.108    0.153   25.142   28.199
 multiply_cannon_loop               197 12.0    0.599    0.761   24.630   27.681
 multiply_cannon_metrocomm3       18912 13.0    0.030    0.032    9.538   20.892
 cp_fm_cholesky_reduce                1  8.0   18.004   18.014   18.004   18.014
 admm_mo_calc_rho_aux                 9  8.0    0.000    0.000   14.214   14.215
 cp_dbcsr_plus_fm_fm_t_native        10  9.7    0.000    0.000   10.888   13.589
 init_scf_run                         1  3.0    0.000    0.003   13.143   13.144
 scf_env_initial_rho_setup            1  4.0    0.000    0.001   13.143   13.144
 calculate_first_density_matrix       1  5.0    0.000    0.002   11.464   12.490
 cp_fm_syevd                          3  8.3    0.000    0.000   12.291   12.332
 multiply_cannon_multrec          18912 13.0    3.226   11.121    6.716   12.283
 cp_fm_redistribute_end               3  9.3   10.717   12.255   10.726   12.259
 cp_fm_syevd_base                     3  9.1    1.530   12.211    1.530   12.211
 multiply_cannon_metrocomm1       18912 13.0    0.024    0.027    4.633   11.609
 calculate_rho_elec                  19  7.4    0.003    0.004    8.594   11.205
 qs_scf_new_mos                       9  5.0    0.000    0.000   10.418   10.515
 qs_scf_loop_do_ot                    9  6.0    0.000    0.000   10.418   10.515
 ot_scf_mini                          9  7.0    0.000    0.017    9.843    9.965
 dbcsr_mm_accdrv_process          22920 13.8    2.057    7.742    3.439    9.663
 cp_gemm                             44 10.0    0.000    0.000    8.996    9.080
 cp_gemm_cosma                       44 11.0    8.996    9.080    8.996    9.080
 calculate_dm_mo_no_diag              9  9.0    0.001    0.002    6.920    8.600
 mp_alltoall_d11v                   481 11.4    5.372    8.081    5.372    8.081
 integrate_four_center_load           9 10.0    0.000    0.021    6.359    8.025
 hfx_load_balance                     1 11.0    0.006    0.034    6.359    8.004
 -------------------------------------------------------------------------------

 The number of warnings for this run is : 1
 
 -------------------------------------------------------------------------------
  **** **** ******  **  PROGRAM ENDED AT                 2022-10-27 20:55:31.931
 ***** ** ***  *** **   PROGRAM RAN ON                                  nid02099
 **    ****   ******    PROGRAM RAN BY                                     ahehn
 ***** **    ** ** **   PROGRAM PROCESS ID                                 14227
  **** **  *******  **  PROGRAM STOPPED IN /scratch/snx3000/ahehn/OKTOBER_2022_M
                                           FU_MOFS/Br_Kr_MOF/PBE0_mfs
