 DBCSR| CPU Multiplication driver                                           XSMM (U)
 DBCSR| Multrec recursion limit                                              512 (U)
 DBCSR| Multiplication stack size                                           1000 (D)
 DBCSR| Maximum elements for images                                    UNLIMITED (U)
 DBCSR| Multiplicative factor virtual images                                   1 (U)
 DBCSR| Use multiplication densification                                       T (D)
 DBCSR| Multiplication size stacks                                             3 (U)
 DBCSR| Use memory pool for CPU allocation                                     F (U)
 DBCSR| Number of 3D layers                                               SINGLE (U)
 DBCSR| Use MPI memory allocation                                              F (U)
 DBCSR| Use RMA algorithm                                                      F (U)
 DBCSR| Use Communication thread                                               T (U)
 DBCSR| Communication thread load                                             87 (D)
 DBCSR| MPI: My process id                                                     0
 DBCSR| MPI: Number of processes                                             144
 DBCSR| OMP: Current number of threads                                         1
 DBCSR| OMP: Max number of threads                                             1
 DBCSR| Split modifier for TAS multiplication algorithm                  1.0E+00 (U)


  **** **** ******  **  PROGRAM STARTED AT               2024-09-13 00:51:16.776
 ***** ** ***  *** **   PROGRAM STARTED ON                              nid06520
 **    ****   ******    PROGRAM STARTED BY                              bsertcan
 ***** **    ** ** **   PROGRAM PROCESS ID                                  4614
  **** **  *******  **  PROGRAM STARTED IN /scratch/snx3000/bsertcan/MFU_sp/br/x
                                           e/rep36

 CP2K| version string:                 CP2K version 2024.2 (Development Version)
 CP2K| source code revision number:                                  git:42d1e6b
 CP2K| cp2kflags: omp libint fftw3 libxc parallel scalapack xsmm                
 CP2K| is freely available from                            https://www.cp2k.org/
 CP2K| Program compiled at                         Tue Sep  3 22:59:39 CEST 2024
 CP2K| Program compiled on                                              daint106
 CP2K| Program compiled for                                                local
 CP2K| Data directory path                             /users/bsertcan/cp2k/data
 CP2K| Input file name                                                 input.inp

 GLOBAL| Force Environment number                                              1
 GLOBAL| Basis set file name                                    BASIS_MOLOPT_UZH
 GLOBAL| Potential file name                                       POTENTIAL_UZH
 GLOBAL| MM Potential file name                                     MM_POTENTIAL
 GLOBAL| Coordinate file name                                         rep_36.xyz
 GLOBAL| Method name                                                        CP2K
 GLOBAL| Project name                                                 Replica_36
 GLOBAL| Run type                                                         ENERGY
 GLOBAL| FFT library                                                       FFTW3
 GLOBAL| Diagonalization library                                       ScaLAPACK
 GLOBAL| DGEMM library                                                      BLAS
 GLOBAL| Orthonormality check for eigenvectors                          DISABLED
 GLOBAL| Matrix multiplication library                                 ScaLAPACK
 GLOBAL| All-to-all communication in single precision                          F
 GLOBAL| FFTs using library dependent lengths                                  F
 GLOBAL| Grid backend                                                       AUTO
 GLOBAL| Global print level                                                  LOW
 GLOBAL| MPI I/O enabled                                                       T
 GLOBAL| Total number of message passing processes                           144
 GLOBAL| Number of threads for this process                                    1
 GLOBAL| This output is from process                                           0
 GLOBAL| Stack size for threads created by OpenMP (OMP_STACKSIZE)             5M
 GLOBAL| CPU model name                Intel(R) Xeon(R) CPU E5-2690 v3 @ 2.60GHz
 GLOBAL| CPUID                                                              1002

 MEMORY| system memory details [Kb]
 MEMORY|                        rank 0           min           max       average
 MEMORY| MemTotal             65740148      65740148      65740148      65740148
 MEMORY| MemFree              60877792      60848624      60922224      60883681
 MEMORY| Buffers                  8456          7928          8964          8347
 MEMORY| Cached                1828056       1813648       1858892       1829829
 MEMORY| Slab                   218548        215016        218548        216297
 MEMORY| SReclaimable            48996         47728         48996         48206
 MEMORY| MemLikelyFree        62763300      62739148      62805372      62770064


 *******************************************************************************
 *******************************************************************************
 **                                                                           **
 **     #####                         ##              ##                      **
 **    ##   ##            ##          ##              ##                      **
 **   ##     ##                       ##            ######                    **
 **   ##     ##  ##   ##  ##   #####  ##  ##   ####   ##    #####    #####    **
 **   ##     ##  ##   ##  ##  ##      ## ##   ##      ##   ##   ##  ##   ##   **
 **   ##  ## ##  ##   ##  ##  ##      ####     ###    ##   ######   ######    **
 **    ##  ###   ##   ##  ##  ##      ## ##      ##   ##   ##       ##        **
 **     #######   #####   ##   #####  ##  ##  ####    ##    #####   ##        **
 **           ##                                                    ##        **
 **                                                                           **
 **                                                ... make the atoms dance   **
 **                                                                           **
 **            Copyright (C) by CP2K developers group (2000-2024)             **
 **                      J. Chem. Phys. 152, 194103 (2020)                    **
 **                                                                           **
 *******************************************************************************


 TOTAL NUMBERS AND MAXIMUM NUMBERS

  Total number of            - Atomic kinds:                                   6
                             - Atoms:                                        409
                             - Shell sets:                                   409
                             - Shells:                                      3617
                             - Primitive Cartesian functions:               2053
                             - Cartesian basis functions:                  13634
                             - Spherical basis functions:                  11621

  Maximum angular momentum of- Orbital basis functions:                        3
                             - Local part of the GTH pseudopotential:          2
                             - Non-local part of the GTH pseudopotential:      4

  AUX_FIT ADMM-Basis: 
  Total number of            - Shell sets:                                  2799
                             - Shells:                                      2799
                             - Primitive Cartesian functions:               3609
                             - Cartesian basis functions:                   7546
                             - Spherical basis functions:                   6985
                               Maximum angular momentum                        3


 SCF PARAMETERS         Density guess:                                   RESTART
                        --------------------------------------------------------
                        max_scf:                                              10
                        max_scf_history:                                       0
                        max_diis:                                              4
                        --------------------------------------------------------
                        eps_scf:                                        1.00E-06
                        eps_scf_history:                                0.00E+00
                        eps_diis:                                       1.00E-01
                        eps_eigval:                                     1.00E-05
                        --------------------------------------------------------
                        level_shift [a.u.]:                             0.000000
                        --------------------------------------------------------
                        Outer loop SCF in use 
                        No variables optimised in outer loop
                        eps_scf                                         1.00E-06
                        max_scf                                               10
                        No outer loop optimization
                        step_size                                       5.00E-01

  HFX_INFO| Replica ID:                                                        1
  HFX_INFO| FRACTION:                                               0.2500000000
  HFX_INFO| Interaction Potential:                                     TRUNCATED
  HFX_INFO| Cutoff Radius [angstrom]:                               6.0000000000
  HFX_INFO| EPS_SCHWARZ:                                                 1.0E-08
  HFX_INFO| EPS_SCHWARZ_FORCES                                           1.0E-06
  HFX_INFO| EPS_STORAGE_SCALING:                                         1.0E+00
  HFX_INFO| NBINS:                                                            64
  HFX_INFO| BLOCK_SIZE:                                                        5
  HFX_INFO| NUMBER_OF_SHELLS:                                               AUTO
  HFX_INFO| Number of periodic shells considered:                             -1
  HFX_INFO| Number of periodic cells considered:                              27


 Number of electrons:                                                       2056
 Number of occupied orbitals:                                               1028
 Number of molecular orbitals:                                              1028

 Number of orbital functions:                                              11621
 Number of independent orbital functions:                                  11621

 Extrapolation method: initial_guess

 *** WARNING in qs_initial_guess.F:306 :: User requested to restart the   ***
 *** wavefunction from the file named: Replica_36-RESTART.wfn. This file  ***
 *** does not exist. Please check the existence of the file or change     ***
 *** properly the value of the keyword WFN_RESTART_FILE_NAME. Calculation ***
 *** continues using ATOMIC GUESS.                                        ***



 SCF WAVEFUNCTION OPTIMIZATION

  ----------------------------------- OT ---------------------------------------
  Minimizer      : DIIS                : direct inversion
                                         in the iterative subspace
                                         using   7 DIIS vectors
                                         safer DIIS on
  Preconditioner : FULL_SINGLE_INVERSE : inversion of 
                                         H + eS - 2*(Sc)(c^T*H*c+const)(Sc)^T
  Precond_solver : DEFAULT
  stepsize       :    0.08000000                  energy_gap     :    0.08000000
  eps_taylor     :   0.10000E-15                  max_taylor     :             4
  ----------------------------------- OT ---------------------------------------

  Step     Update method      Time    Convergence         Total energy    Change
  ------------------------------------------------------------------------------

  HFX_MEM_INFO| Est. max. program size before HFX [MiB]:                     456

 *** WARNING in hfx_energy_potential.F:587 :: The Kohn Sham matrix is not ***
 *** 100% occupied. This may result in incorrect Hartree-Fock results.    ***
 *** Setting MIN_PAIR_LIST_RADIUS to -1 in the QS section ensures a fully ***
 *** occupied KS matrix. For more information see FAQ:                    ***
 *** https://www.cp2k.org/faq:hfx_eps_warning                             ***

  HFX_MEM_INFO| Number of cart. primitive ERI's calculated:         606463770979
  HFX_MEM_INFO| Number of sph. ERI's calculated:                    321404987268
  HFX_MEM_INFO| Number of sph. ERI's stored in-core:                314343948161
  HFX_MEM_INFO| Number of sph. ERI's stored on disk:                           0
  HFX_MEM_INFO| Number of sph. ERI's calculated on the fly:                    0
  HFX_MEM_INFO| Total memory consumption ERI's RAM [MiB]:                 277585
  HFX_MEM_INFO| Whereof max-vals [MiB]:                                     4902
  HFX_MEM_INFO| Total compression factor ERI's RAM:                         8.64
  HFX_MEM_INFO| Total memory consumption ERI's disk [MiB]:                     0
  HFX_MEM_INFO| Total compression factor ERI's disk:                        0.00
  HFX_MEM_INFO| Size of density/Fock matrix [MiB]:                           152
  HFX_MEM_INFO| Size of buffers [MiB]:                                        79
  HFX_MEM_INFO| Number of periodic image cells considered:                    27
  HFX_MEM_INFO| Est. max. program size after HFX  [MiB]:                    2612

     1 OT DIIS     0.80E-01  231.2     0.01148736     -4957.7300678538 -4.96E+03
     2 OT DIIS     0.80E-01   36.8     0.00706059     -5035.7943314237 -7.81E+01
     3 OT DIIS     0.80E-01   37.1     0.00651340     -5074.1808036343 -3.84E+01
     4 OT DIIS     0.80E-01   36.7     0.00610368     -5095.8352281324 -2.17E+01
     5 OT DIIS     0.80E-01   37.9     0.00350434     -5134.8814376558 -3.90E+01
     6 OT DIIS     0.80E-01   37.5     0.00268824     -5147.7310467425 -1.28E+01
     7 OT DIIS     0.80E-01   36.8     0.00204821     -5156.8263332775 -9.10E+00
     8 OT DIIS     0.80E-01   36.7     0.00136042     -5164.3938965937 -7.57E+00
     9 OT DIIS     0.80E-01   36.8     0.00118615     -5166.7611010673 -2.37E+00
    10 OT DIIS     0.80E-01   36.7     0.00082331     -5169.8974593318 -3.14E+00

  Leaving inner SCF loop after reaching    10 steps.


  Electronic density on regular grids:      -2055.9999999828        0.0000000172
  Core density on regular grids:             2055.9999998392       -0.0000001608
  Total charge density on r-space grids:       -0.0000001436
  Total charge density g-space grids:          -0.0000001436

  Overlap energy of the core charge distribution:               0.00004735441033
  Self energy of the core charge distribution:              -9694.22645242353974
  Core Hamiltonian energy:                                   2875.95811128525975
  Hartree energy:                                            2710.76285980821558
  Exchange-correlation energy:                               -834.93676674702988
  Hartree-Fock Exchange energy:                              -226.57357289034880
  Dispersion energy:                                           -0.88168571881122

  Total energy:                                             -5169.89745933184622

  outer SCF iter =    1 RMS gradient =   0.82E-03 energy =      -5169.8974593318

  ----------------------------------- OT ---------------------------------------
  Minimizer      : DIIS                : direct inversion
                                         in the iterative subspace
                                         using   7 DIIS vectors
                                         safer DIIS on
  Preconditioner : FULL_SINGLE_INVERSE : inversion of 
                                         H + eS - 2*(Sc)(c^T*H*c+const)(Sc)^T
  Precond_solver : DEFAULT
  stepsize       :    0.08000000                  energy_gap     :    0.08000000
  eps_taylor     :   0.10000E-15                  max_taylor     :             4
  ----------------------------------- OT ---------------------------------------

  Step     Update method      Time    Convergence         Total energy    Change
  ------------------------------------------------------------------------------
     1 OT DIIS     0.80E-01   76.4     0.00134641     -5171.0819459653 -1.18E+00
     2 OT DIIS     0.80E-01   36.7     0.00115438     -5172.6801242008 -1.60E+00
     3 OT DIIS     0.80E-01   36.7     0.00060691     -5174.7266066865 -2.05E+00
     4 OT DIIS     0.80E-01   36.7     0.00043891     -5175.1103574974 -3.84E-01
     5 OT DIIS     0.80E-01   36.8     0.00040594     -5175.2333111881 -1.23E-01
     6 OT DIIS     0.80E-01   36.8     0.00031878     -5175.3346971960 -1.01E-01
     7 OT DIIS     0.80E-01   36.7     0.00029478     -5175.3959751019 -6.13E-02
     8 OT DIIS     0.80E-01   36.8     0.00024585     -5175.4688940435 -7.29E-02
     9 OT DIIS     0.80E-01   36.9     0.00013131     -5175.5417679444 -7.29E-02
    10 OT DIIS     0.80E-01   36.8     0.00011545     -5175.5432446799 -1.48E-03

  Leaving inner SCF loop after reaching    10 steps.


  Electronic density on regular grids:      -2055.9999999828        0.0000000172
  Core density on regular grids:             2055.9999998392       -0.0000001608
  Total charge density on r-space grids:       -0.0000001436
  Total charge density g-space grids:          -0.0000001436

  Overlap energy of the core charge distribution:               0.00004735441033
  Self energy of the core charge distribution:              -9694.22645242353974
  Core Hamiltonian energy:                                   2871.96693688944197
  Hartree energy:                                            2710.92871189382186
  Exchange-correlation energy:                               -835.20571441907327
  Hartree-Fock Exchange energy:                              -228.12508825615481
  Dispersion energy:                                           -0.88168571881122

  Total energy:                                             -5175.54324467990500

  outer SCF iter =    2 RMS gradient =   0.12E-03 energy =      -5175.5432446799

  ----------------------------------- OT ---------------------------------------
  Minimizer      : DIIS                : direct inversion
                                         in the iterative subspace
                                         using   7 DIIS vectors
                                         safer DIIS on
  Preconditioner : FULL_SINGLE_INVERSE : inversion of 
                                         H + eS - 2*(Sc)(c^T*H*c+const)(Sc)^T
  Precond_solver : DEFAULT
  stepsize       :    0.08000000                  energy_gap     :    0.08000000
  eps_taylor     :   0.10000E-15                  max_taylor     :             4
  ----------------------------------- OT ---------------------------------------

  Step     Update method      Time    Convergence         Total energy    Change
  ------------------------------------------------------------------------------
     1 OT DIIS     0.80E-01   76.3     0.00007485     -5175.5589428197 -1.57E-02
     2 OT DIIS     0.80E-01   36.6     0.00005525     -5175.5634400043 -4.50E-03
     3 OT DIIS     0.80E-01   36.7     0.00003584     -5175.5672057608 -3.77E-03
     4 OT DIIS     0.80E-01   36.6     0.00000871     -5175.5691416370 -1.94E-03
     5 OT DIIS     0.80E-01   36.6     0.00000556     -5175.5692147452 -7.31E-05
     6 OT DIIS     0.80E-01   36.6     0.00000262     -5175.5692574262 -4.27E-05
     7 OT DIIS     0.80E-01   36.9     0.00000119     -5175.5692668419 -9.42E-06
     8 OT DIIS     0.80E-01   36.7     0.00000068     -5175.5692685214 -1.68E-06

  *** SCF run converged in     8 steps ***


  Electronic density on regular grids:      -2055.9999999828        0.0000000172
  Core density on regular grids:             2055.9999998392       -0.0000001608
  Total charge density on r-space grids:       -0.0000001436
  Total charge density g-space grids:          -0.0000001436

  Overlap energy of the core charge distribution:               0.00004735441033
  Self energy of the core charge distribution:              -9694.22645242353974
  Core Hamiltonian energy:                                   2871.97601790391855
  Hartree energy:                                            2710.90404940043300
  Exchange-correlation energy:                               -835.20691503784155
  Hartree-Fock Exchange energy:                              -228.13432999994876
  Dispersion energy:                                           -0.88168571881122

  Total energy:                                             -5175.56926852138076

  outer SCF iter =    3 RMS gradient =   0.68E-06 energy =      -5175.5692685214
  outer SCF loop converged in   3 iterations or   28 steps


 ENERGY| Total FORCE_EVAL ( QS ) energy [a.u.]:            -5175.569268521380764

 -------------------------------------------------------------------------------
 -                                                                             -
 -                                DBCSR STATISTICS                             -
 -                                                                             -
 -------------------------------------------------------------------------------
 COUNTER                                    TOTAL       BLAS       SMM       ACC
 flops    14 x     4 x     4               129024       0.0%    100.0%      0.0%     
 flops     4 x     4 x   976               187392       0.0%    100.0%      0.0%     
 flops    41 x     4 x     4               314880       0.0%    100.0%      0.0%     
 flops     4 x     4 x   974               374016       0.0%    100.0%      0.0%     
 flops     4 x     4 x   962               461760       0.0%    100.0%      0.0%     
 flops    29 x     4 x     4              1787328       0.0%    100.0%      0.0%     
 flops    14 x    32 x     4             16515072       0.0%    100.0%      0.0%     
 flops    14 x     4 x    32             16515072       0.0%    100.0%      0.0%     
 flops    32 x     4 x   976             23986176       0.0%    100.0%      0.0%     
 flops     4 x    32 x   976             23986176       0.0%    100.0%      0.0%     
 flops    41 x    32 x     4             40304640       0.0%    100.0%      0.0%     
 flops    41 x     4 x    32             40304640       0.0%    100.0%      0.0%     
 flops    32 x     4 x   974             47874048       0.0%    100.0%      0.0%     
 flops     4 x    32 x   974             47874048       0.0%    100.0%      0.0%     
 flops    32 x     4 x   962             59105280       0.0%    100.0%      0.0%     
 flops     4 x    32 x   962             59105280       0.0%    100.0%      0.0%     
 flops     6 x     6 x    68             64705536       0.0%    100.0%      0.0%     
 flops    31 x     6 x    68            101993472       0.0%    100.0%      0.0%     
 flops    14 x     4 x    14            105369600       0.0%    100.0%      0.0%     
 flops    68 x    68 x    68            146525312       0.0%    100.0%      0.0%     
 flops     6 x     6 x    64            182697984       0.0%    100.0%      0.0%     
 flops    29 x    32 x     4            228777984       0.0%    100.0%      0.0%     
 flops    29 x     4 x    32            228777984       0.0%    100.0%      0.0%     
 flops    31 x     6 x    64            287981568       0.0%    100.0%      0.0%     
 flops    41 x    14 x    68            370960128       0.0%    100.0%      0.0%     
 flops    64 x    68 x    68            413718528       0.0%    100.0%      0.0%     
 flops    68 x    64 x    68            413718528       0.0%    100.0%      0.0%     
 flops    68 x    68 x    64            413718528       0.0%    100.0%      0.0%     
 flops    14 x    14 x    68            483646464       0.0%    100.0%      0.0%     
 flops    41 x     4 x    14            493731840       0.0%    100.0%      0.0%     
 flops    14 x     4 x    41            493731840       0.0%    100.0%      0.0%     
 flops     6 x    31 x    68            713954304       0.0%    100.0%      0.0%     
 flops     6 x     6 x    96            730791936       0.0%    100.0%      0.0%     
 flops     6 x    17 x    68            884034816       0.0%    100.0%      0.0%     
 flops    41 x    14 x    64           1047416832       0.0%    100.0%      0.0%     
 flops    17 x     6 x    68           1052218944       0.0%    100.0%      0.0%     
 flops    31 x     6 x    96           1151926272       0.0%    100.0%      0.0%     
 flops    64 x    64 x    68           1168146432       0.0%    100.0%      0.0%     
 flops    64 x    68 x    64           1168146432       0.0%    100.0%      0.0%     
 flops    68 x    64 x    64           1168146432       0.0%    100.0%      0.0%     
 flops   963 x    68 x    68           1193380416       0.0%    100.0%      0.0%     
 flops    14 x    14 x    64           1365590016       0.0%    100.0%      0.0%     
 flops    41 x     4 x    41           1498645120       0.0%    100.0%      0.0%     
 flops    14 x     4 x    29           1639038240       0.0%    100.0%      0.0%     
 flops    29 x     4 x    14           1639038240       0.0%    100.0%      0.0%     
 flops    68 x    68 x    96           1654874112       0.0%    100.0%      0.0%     
 flops    68 x    96 x    68           1654874112       0.0%    100.0%      0.0%     
 flops    96 x    68 x    68           1654874112       0.0%    100.0%      0.0%     
 flops    68 x    68 x   976           1967678464       0.0%    100.0%      0.0%     
 flops     6 x    31 x    64           2015870976       0.0%    100.0%      0.0%     
 flops   976 x    68 x    68           2418980864       0.0%    100.0%      0.0%     
 flops    31 x    31 x    68           2473813888       0.0%    100.0%      0.0%     
 flops     6 x    17 x    64           2496098304       0.0%    100.0%      0.0%     
 flops    17 x     6 x    64           2970971136       0.0%    100.0%      0.0%     
 flops    64 x    64 x    64           3298295808       0.0%    100.0%      0.0%     
 flops   963 x    64 x    68           3369544704       0.0%    100.0%      0.0%     
 flops   963 x    68 x    64           3369544704       0.0%    100.0%      0.0%     
 flops    14 x    41 x    68           3555971328       0.0%    100.0%      0.0%     
 flops    68 x    68 x   974           3927292672       0.0%    100.0%      0.0%     
 flops    41 x    14 x    96           4189667328       0.0%    100.0%      0.0%     
 flops    14 x    32 x    32           4359979008       0.0%    100.0%      0.0%     
 flops    64 x    68 x    96           4672585728       0.0%    100.0%      0.0%     
 flops    64 x    96 x    68           4672585728       0.0%    100.0%      0.0%     
 flops    68 x    64 x    96           4672585728       0.0%    100.0%      0.0%     
 flops    68 x    96 x    64           4672585728       0.0%    100.0%      0.0%     
 flops    96 x    64 x    68           4672585728       0.0%    100.0%      0.0%     
 flops    96 x    68 x    64           4672585728       0.0%    100.0%      0.0%     
 flops   974 x    68 x    68           4828047872       0.0%    100.0%      0.0%     
 flops    68 x    68 x   962           4848633920       0.0%    100.0%      0.0%     
 flops    14 x    14 x    96           5462360064       0.0%    100.0%      0.0%     
 flops    64 x    68 x   976           5555798016       0.0%    100.0%      0.0%     
 flops    68 x    64 x   976           5555798016       0.0%    100.0%      0.0%     
 flops   962 x    68 x    68           5960705920       0.0%    100.0%      0.0%     
 flops    41 x    41 x    68           5972364384       0.0%    100.0%      0.0%     
 flops    14 x    29 x    68           6029587200       0.0%    100.0%      0.0%     
 flops    32 x    32 x   976           6332350464       0.0%    100.0%      0.0%     
 flops   976 x    64 x    68           6830063616       0.0%    100.0%      0.0%     
 flops   976 x    68 x    64           6830063616       0.0%    100.0%      0.0%     
 flops    17 x    31 x    68           6919501568       0.0%    100.0%      0.0%     
 flops    31 x    31 x    64           6984886272       0.0%    100.0%      0.0%     
 flops   963 x    68 x   976           7925135616       0.0%    100.0%      0.0%     
 flops    41 x     4 x    29           7959451360       0.0%    100.0%      0.0%     
 flops    29 x     4 x    41           7959451360       0.0%    100.0%      0.0%     
 flops     6 x    31 x    96           8063483904       0.0%    100.0%      0.0%     
 flops    29 x    14 x    68           8066229360       0.0%    100.0%      0.0%     
 flops    31 x    17 x    68           9165128672       0.0%    100.0%      0.0%     
 flops   963 x    64 x    64           9514008576       0.0%    100.0%      0.0%     
 flops     6 x    17 x    96           9984393216       0.0%    100.0%      0.0%     
 flops    14 x    41 x    64          10040389632       0.0%    100.0%      0.0%     
 flops    41 x    32 x    32          10640424960       0.0%    100.0%      0.0%     
 flops    64 x    68 x   974          11088826368       0.0%    100.0%      0.0%     
 flops    68 x    64 x   974          11088826368       0.0%    100.0%      0.0%     
 flops    17 x     6 x    96          11883884544       0.0%    100.0%      0.0%     
 flops    32 x    32 x   974          12638748672       0.0%    100.0%      0.0%     
 flops    64 x    64 x    96          13193183232       0.0%    100.0%      0.0%     
 flops    64 x    96 x    64          13193183232       0.0%    100.0%      0.0%     
 flops    96 x    64 x    64          13193183232       0.0%    100.0%      0.0%     
 flops   963 x    68 x    96          13478178816       0.0%    100.0%      0.0%     
 flops   963 x    96 x    68          13478178816       0.0%    100.0%      0.0%     
 flops   974 x    64 x    68          13632135168       0.0%    100.0%      0.0%     
 flops   974 x    68 x    64          13632135168       0.0%    100.0%      0.0%     
 flops    64 x    68 x   962          13690260480       0.0%    100.0%      0.0%     
 flops    68 x    64 x   962          13690260480       0.0%    100.0%      0.0%     
 flops    32 x    32 x   962          15603793920       0.0%    100.0%      0.0%     
 flops    64 x    64 x   976          15686959104       0.0%    100.0%      0.0%     
 flops   963 x    68 x   974          15817791168       0.0%    100.0%      0.0%     
 flops   976 x    68 x   976          16064241664       0.0%    100.0%      0.0%     
 flops    17 x    17 x    68          16718978304       0.0%    100.0%      0.0%     
 flops   962 x    64 x    68          16830228480       0.0%    100.0%      0.0%     
 flops   962 x    68 x    64          16830228480       0.0%    100.0%      0.0%     
 flops    41 x    41 x    64          16863146496       0.0%    100.0%      0.0%     
 flops    14 x    29 x    64          17024716800       0.0%    100.0%      0.0%     
 flops    96 x    96 x    68          18690342912       0.0%    100.0%      0.0%     
 flops    68 x    96 x    96          18690342912       0.0%    100.0%      0.0%     
 flops    96 x    68 x    96          18690342912       0.0%    100.0%      0.0%     
 flops   976 x    64 x    64          19284885504       0.0%    100.0%      0.0%     
 flops   963 x    68 x   962          19528638480       0.0%    100.0%      0.0%     
 flops    17 x    31 x    64          19537416192       0.0%    100.0%      0.0%     
 flops    68 x    96 x   976          22223192064       0.0%    100.0%      0.0%     
 flops    96 x    68 x   976          22223192064       0.0%    100.0%      0.0%     
 flops   963 x    64 x   976          22376853504       0.0%    100.0%      0.0%     
 flops    29 x    14 x    64          22775235840       0.0%    100.0%      0.0%     
 flops    31 x    17 x    64          25878010368       0.0%    100.0%      0.0%     
 flops    29 x    41 x    68          26521881560       0.0%    100.0%      0.0%     
 flops    14 x    32 x    14          26974617600       0.0%    100.0%      0.0%     
 flops   976 x    68 x    96          27320254464       0.0%    100.0%      0.0%     
 flops   976 x    96 x    68          27320254464       0.0%    100.0%      0.0%     
 flops    31 x    31 x    96          27939545088       0.0%    100.0%      0.0%     
 flops    29 x     4 x    29          28594336400       0.0%    100.0%      0.0%     
 flops    64 x    64 x   974          31309627392       0.0%    100.0%      0.0%     
 flops   976 x    68 x   974          32062646272       0.0%    100.0%      0.0%     
 flops   974 x    68 x   976          32062646272       0.0%    100.0%      0.0%     
 flops    41 x    29 x    68          35764235384       0.0%    100.0%      0.0%     
 flops   963 x    64 x    96          38056034304       0.0%    100.0%      0.0%     
 flops   963 x    96 x    64          38056034304       0.0%    100.0%      0.0%     
 flops   974 x    64 x    64          38490734592       0.0%    100.0%      0.0%     
 flops    64 x    64 x   962          38654853120       0.0%    100.0%      0.0%     
 flops   976 x    68 x   962          39584529920       0.0%    100.0%      0.0%     
 flops   962 x    68 x   976          39584529920       0.0%    100.0%      0.0%     
 flops    14 x    41 x    96          40161558528       0.0%    100.0%      0.0%     
 flops    68 x    96 x   974          44355305472       0.0%    100.0%      0.0%     
 flops    96 x    68 x   974          44355305472       0.0%    100.0%      0.0%     
 flops   963 x    64 x   974          44661998592       0.0%    100.0%      0.0%     
 flops   976 x    64 x   976          45357858816       0.0%    100.0%      0.0%     
 flops    17 x    17 x    64          47206526976       0.0%    100.0%      0.0%     
 flops   962 x    64 x    64          47520645120       0.0%    100.0%      0.0%     
 flops    96 x    96 x    64          52772732928       0.0%    100.0%      0.0%     
 flops    64 x    96 x    96          52772732928       0.0%    100.0%      0.0%     
 flops    96 x    64 x    96          52772732928       0.0%    100.0%      0.0%     
 flops   974 x    96 x    68          54528540672       0.0%    100.0%      0.0%     
 flops   974 x    68 x    96          54528540672       0.0%    100.0%      0.0%     
 flops    68 x    96 x   962          54761041920       0.0%    100.0%      0.0%     
 flops    96 x    68 x   962          54761041920       0.0%    100.0%      0.0%     
 flops   963 x    64 x   962          55139685120       0.0%    100.0%      0.0%     
 flops    29 x    32 x    32          60397387776       0.0%    100.0%      0.0%     
 flops    64 x    96 x   976          62747836416       0.0%    100.0%      0.0%     
 flops    96 x    64 x   976          62747836416       0.0%    100.0%      0.0%     
 flops   974 x    68 x   974          63993888256       0.0%    100.0%      0.0%     
 flops   962 x    68 x    96          67320913920       0.0%    100.0%      0.0%     
 flops   962 x    96 x    68          67320913920       0.0%    100.0%      0.0%     
 flops    41 x    41 x    96          67452585984       0.0%    100.0%      0.0%     
 flops    14 x    29 x    96          68098867200       0.0%    100.0%      0.0%     
 flops    29 x    41 x    64          74885312640       0.0%    100.0%      0.0%     
 flops   976 x    64 x    96          77139542016       0.0%    100.0%      0.0%     
 flops   976 x    96 x    64          77139542016       0.0%    100.0%      0.0%     
 flops    17 x    31 x    96          78149664768       0.0%    100.0%      0.0%     
 flops   962 x    68 x   974          79006828160       0.0%    100.0%      0.0%     
 flops   974 x    68 x   962          79006828160       0.0%    100.0%      0.0%     
 flops   963 x    96 x   976          89507414016       0.0%    100.0%      0.0%     
 flops   976 x    64 x   974          90529824768       0.0%    100.0%      0.0%     
 flops   974 x    64 x   976          90529824768       0.0%    100.0%      0.0%     
 flops    29 x    14 x    96          91100943360       0.0%    100.0%      0.0%     
 flops   962 x    68 x   962          97541797600       0.0%    100.0%      0.0%     
 flops    41 x    29 x    64         100981370496       0.0%    100.0%      0.0%     
 flops    31 x    17 x    96         103512041472       0.0%    100.0%      0.0%     
 flops   976 x    64 x   962         111768084480       0.0%    100.0%      0.0%     
 flops   962 x    64 x   976         111768084480       0.0%    100.0%      0.0%     
 flops    29 x    29 x    68         118958474440       0.0%    100.0%      0.0%     
 flops    64 x    96 x   974         125238509568       0.0%    100.0%      0.0%     
 flops    96 x    64 x   974         125238509568       0.0%    100.0%      0.0%     
 flops    41 x    32 x    14         126395351040       0.0%    100.0%      0.0%     
 flops    14 x    32 x    41         126395351040       0.0%    100.0%      0.0%     
 flops   963 x    96 x    96         152224137216       0.0%    100.0%      0.0%     
 flops   974 x    96 x    64         153962938368       0.0%    100.0%      0.0%     
 flops   974 x    64 x    96         153962938368       0.0%    100.0%      0.0%     
 flops    64 x    96 x   962         154619412480       0.0%    100.0%      0.0%     
 flops    96 x    64 x   962         154619412480       0.0%    100.0%      0.0%     
 flops   963 x    96 x   974         178647994368       0.0%    100.0%      0.0%     
 flops   974 x    64 x   974         180688625664       0.0%    100.0%      0.0%     
 flops   976 x    96 x   976         181431435264       0.0%    100.0%      0.0%     
 flops    17 x    17 x    96         188826107904       0.0%    100.0%      0.0%     
 flops   962 x    64 x    96         190082580480       0.0%    100.0%      0.0%     
 flops   962 x    96 x    64         190082580480       0.0%    100.0%      0.0%     
 flops    96 x    96 x    96         211090931712       0.0%    100.0%      0.0%     
 flops   963 x    96 x   962         220558740480       0.0%    100.0%      0.0%     
 flops   962 x    64 x   974         223078103040       0.0%    100.0%      0.0%     
 flops   974 x    64 x   962         223078103040       0.0%    100.0%      0.0%     
 flops    96 x    96 x   976         250991345664       0.0%    100.0%      0.0%     
 flops   962 x    64 x   962         275412134400       0.0%    100.0%      0.0%     
 flops    29 x    41 x    96         299541250560       0.0%    100.0%      0.0%     
 flops   976 x    96 x    96         308558168064       0.0%    100.0%      0.0%     
 flops    29 x    29 x    64         335882751360       0.0%    100.0%      0.0%     
 flops   974 x    96 x   976         362119299072       0.0%    100.0%      0.0%     
 flops   976 x    96 x   974         362119299072       0.0%    100.0%      0.0%     
 flops    41 x    32 x    41         383653150720       0.0%    100.0%      0.0%     
 flops    41 x    29 x    96         403925481984       0.0%    100.0%      0.0%     
 flops    14 x    32 x    29         419593789440       0.0%    100.0%      0.0%     
 flops    29 x    32 x    14         419593789440       0.0%    100.0%      0.0%     
 flops   976 x    96 x   962         447072337920       0.0%    100.0%      0.0%     
 flops   962 x    96 x   976         447072337920       0.0%    100.0%      0.0%     
 flops    96 x    96 x   974         500954038272       0.0%    100.0%      0.0%     
 flops   974 x    96 x    96         615851753472       0.0%    100.0%      0.0%     
 flops    96 x    96 x   962         618477649920       0.0%    100.0%      0.0%     
 flops   974 x    96 x   974         722754502656       0.0%    100.0%      0.0%     
 flops   962 x    96 x    96         760330321920       0.0%    100.0%      0.0%     
 flops   974 x    96 x   962         892312412160       0.0%    100.0%      0.0%     
 flops   962 x    96 x   974         892312412160       0.0%    100.0%      0.0%     
 flops   962 x    96 x   962        1101648537600       0.0%    100.0%      0.0%     
 flops    29 x    29 x    96        1343531005440       0.0%    100.0%      0.0%     
 flops    41 x    32 x    29        2037619548160       0.0%    100.0%      0.0%     
 flops    29 x    32 x    41        2037619548160       0.0%    100.0%      0.0%     
 flops    29 x    32 x    29        7320150118400       0.0%    100.0%      0.0%     
 flops inhomo. stacks                951113709952     100.0%      0.0%      0.0%
 flops total                        31.843282E+12       3.0%     97.0%      0.0%
 flops max/rank                    255.052221E+09       3.0%     97.0%      0.0%
 matmuls inhomo. stacks                     21843     100.0%      0.0%      0.0%
 matmuls total                          275595744       0.0%    100.0%      0.0%
 number of processed stacks               3019221       0.7%     99.3%      0.0%
 average stack size                                     1.1      91.9       0.0
 marketing flops                    46.506703E+12
 -------------------------------------------------------------------------------
 # multiplications                            649
 max memory usage/rank               2.673811E+09
 # max total images/rank                        1
 # max 3D layers                                1
 # MPI messages exchanged                 2056032
 MPI messages size (bytes):
  total size                         1.570216E+12
  min size                           0.000000E+00
  max size                           7.620608E+06
  average size                     763.711625E+03
 MPI breakdown and total messages size (bytes):
             size <=      128               13860                        0
       128 < size <=     8192                   0                        0
      8192 < size <=    32768               60093               1964806272
     32768 < size <=   131072              895455              54121034880
    131072 < size <=  4194304              926640             591514152416
   4194304 < size <= 16777216              159984             922620698648
  16777216 < size                               0                        0
 -------------------------------------------------------------------------------
 -                                                                             -
 -                      DBCSR MESSAGE PASSING PERFORMANCE                      -
 -                                                                             -
 -------------------------------------------------------------------------------
 ROUTINE             CALLS      AVE VOLUME [Bytes]
 MP_Bcast              223                     12.
 MP_Allreduce         3898                     30.
 MP_Alltoall          4119                 312358.
 MP_ISend            31140                 361248.
 MP_IRecv            31140                 358780.
 -------------------------------------------------------------------------------

 -------------------------------------------------------------------------------
 -                                                                             -
 -                                DBM STATISTICS                               -
 -                                                                             -
 -------------------------------------------------------------------------------
    M  x    N  x    K                                          COUNT     PERCENT
 -------------------------------------------------------------------------------

 -------------------------------------------------------------------------------
 -                                                                             -
 -                                GRID STATISTICS                              -
 -                                                                             -
 -------------------------------------------------------------------------------
 LP    KERNEL             BACKEND                              COUNT     PERCENT
 6     collocate ortho    CPU                                7662278      16.21%
 6     integrate ortho    CPU                                7398216      15.65%
 1     collocate ortho    CPU                                5305132      11.22%
 1     integrate ortho    CPU                                5305132      11.22%
 2     collocate ortho    CPU                                4335212       9.17%
 2     integrate ortho    CPU                                4335212       9.17%
 0     collocate ortho    CPU                                2641912       5.59%
 0     integrate ortho    CPU                                2641912       5.59%
 3     collocate ortho    CPU                                1846572       3.91%
 3     integrate ortho    CPU                                1846572       3.91%
 5     collocate ortho    CPU                                1444250       3.06%
 5     integrate ortho    CPU                                1396780       2.95%
 4     collocate ortho    CPU                                 529304       1.12%
 4     integrate ortho    CPU                                 526232       1.11%
 0     collocate general  CPU                                  58896       0.12%
 -------------------------------------------------------------------------------

 MEMORY| Estimated peak process memory [MiB]                                2703

 -------------------------------------------------------------------------------
 -                                                                             -
 -                         MESSAGE PASSING PERFORMANCE                         -
 -                                                                             -
 -------------------------------------------------------------------------------

 ROUTINE             CALLS      AVE VOLUME [Bytes]
 MP_Group                4
 MP_Bcast             3677                4078643.
 MP_Allreduce         8248                   2598.
 MP_Sync               167
 MP_Alltoall          1299                8953073.
 MP_SendRecv         16302                  44208.
 MP_ISendRecv        24310                 264762.
 MP_Wait             34752
 MP_comm_split          20
 MP_ISend             9534                 272624.
 MP_IRecv             9534                 272580.
 -------------------------------------------------------------------------------


 -------------------------------------------------------------------------------
 -                                                                             -
 -                           R E F E R E N C E S                               -
 -                                                                             -
 -------------------------------------------------------------------------------
 
 CP2K version 2024.2 (Development Version), the CP2K developers group (2024).
 CP2K is freely available from https://www.cp2k.org/ .
 
 T. D. Kuehne, M. Iannuzzi, M. Del Ben, V. V. Rybkin, P. Seewald, F. Stein, T. 
 Laino, R. Z. Khaliullin, O. Schuett, F. Schiffmann, D. Golze, J. Wilhelm, S. 
 Chulkov, M. H. Bani-Hashemian, V. Weber, U. Borstnik, M. Taillefumier, A. S. 
 Jakobovits, A. Lazzaro, H. Pabst, T. Mueller, R. Schade, M. Guidon, S. 
 Andermatt, N. Holmberg, G. K. Schenter, A. Hehn, A. Bussy, F. Belleflamme, G. 
 Tabacchi, A. Gloess, M. Lass, I. Bethune, C. J. Mundy, C. Plessl, M. Watkins, 
 J. VandeVondele, M. Krack, J. Hutter.
 J. Chem. Phys. 152, 194103 (2020).
 CP2K: An electronic structure and molecular dynamics software package - 
 Quickstep: Efficient and accurate electronic structure calculations.
 https://doi.org/10.1063/5.0007045

 S. Lehtola, C. Steigemann, M. J. T. Oliveira, M. A. L. Marques.
 SoftwareX 7, 1-5 (2018).
 Recent developments in libxc - A comprehensive library of functionals for 
 density functional theory.
 https://doi.org/10.1016/j.softx.2017.11.002

 L. Goerigk, A. Hansen, C. Bauer, S. Ehrlich, A. Najibi, S. Grimme.
 Phys. Chem. Chem. Phys. 19, 32184-32215 (2017).
 A look at the density functional theory zoo with the advanced GMTKN55 database 
 for general main group thermochemistry, kinetics and noncovalent interactions.
 https://doi.org/10.1039/C7CP04913G

 O. Schuett, P. Messmer, J. Hutter, J. VandeVondele.
 Electronic Structure Calculations on Graphics Processing Units, 173-190 (2016).
 GPU-Accelerated Sparse Matrix-Matrix Multiplication for Linear Scaling Density 
 Functional Theory.
 https://doi.org/10.1002/9781118670712.ch8

 A. Heinecke, G. Henry, M. Hutchinson, H. Pabst.
 Proceedings of Intl. Supercomputing Conference, 981-991 (2016).
 LIBXSMM: Accelerating Small Matrix Multiplications by Runtime Code Generation.
 https://doi.org/10.1109/SC.2016.83

 J. Hutter, M. Iannuzzi, F. Schiffmann, J. VandeVondele.
 WIREs Comput Mol Sci. 4, 15-25 (2014).
 CP2K: atomistic simulations of condensed matter systems.
 https://doi.org/10.1002/wcms.1159

 U. Borstnik, J. VandeVondele, V. Weber, J. Hutter.
 Parallel Comput. 40, 47-58 (2014).
 Sparse matrix multiplication: The distributed block-compressed sparse row 
 library.
 https://doi.org/10.1016/j.parco.2014.03.012

 M. A. L. Marques, M. J. T. Oliveira, T. Burnus.
 Comput. Phys. Commun. 183, 2272-2281 (2012).
 LIBXC: A library of exchange and correlation functionals for density functional 
 theory.
 https://doi.org/10.1016/j.cpc.2012.05.007

 S. Grimme, S. Ehrlich, L. Goerigk.
 J. Comput. Chem. 32, 1456 (2011).
 Effect of the damping function in dispersion corrected density functional 
 theory.
 https://doi.org/10.1002/jcc.21759

 S. Grimme, J. Antony, S. Ehrlich, H. Krieg.
 J. Chem. Phys. 132, 154104 (2010).
 A consistent and accurate ab initio parametrization of density functional 
 dispersion correction (DFT-D) for the 94 elements H-Pu.
 https://doi.org/10.1063/1.3382344

 M. Guidon, J. Hutter, J. VandeVondele.
 J. Chem. Theory Comput. 6, 2348-2364 (2010).
 Auxiliary Density Matrix Methods for Hartree-Fock Exchange Calculations.
 https://doi.org/10.1021/ct1002225

 M. Guidon, J. Hutter, J. VandeVondele.
 J. Chem. Theory Comput. 5, 3010-3021 (2009).
 Robust Periodic Hartree-Fock Exchange for Large-Scale Simulations Using 
 Gaussian Basis Sets.
 https://doi.org/10.1021/ct900494g

 M. Guidon, F. Schiffmann, J. Hutter, J. VandeVondele.
 J. Chem. Phys. 128, 214104 (2008).
 Ab initio molecular dynamics using hybrid density functionals.
 https://doi.org/10.1063/1.2931945

 J. VandeVondele, J. Hutter.
 J. Chem. Phys. 127, 114105 (2007).
 Gaussian basis sets for accurate calculations on molecular systems in gas and 
 condensed phases.
 https://doi.org/10.1063/1.2770708

 J. VandeVondele, M. Krack, F. Mohamed, M. Parrinello, T. Chassaing, J. Hutter.
 Comput. Phys. Commun. 167, 103-128 (2005).
 QUICKSTEP: Fast and accurate density functional calculations using a mixed 
 Gaussian and plane waves approach.
 https://doi.org/10.1016/j.cpc.2004.12.014

 M. Krack.
 Theor. Chem. Acc. 114, 145-152 (2005).
 Pseudopotentials for H to Kr optimized for gradient-corrected 
 exchange-correlation functionals.
 https://doi.org/10.1007/s00214-005-0655-y

 M. Frigo, S. G. Johnson.
 Proc. IEEE 93, 216-231 (2005).
 The design and implementation of FFTW3.
 https://doi.org/10.1109/JPROC.2004.840301

 J. VandeVondele, J. Hutter.
 J. Chem. Phys. 118, 4365-4369 (2003).
 An efficient orbital transformation method for electronic structure 
 calculations.
 https://doi.org/10.1063/1.1543154

 C. Hartwigsen, S. Goedecker, J. Hutter.
 Phys. Rev. B 58, 3641-3662 (1998).
 Relativistic separable dual-space Gaussian pseudopotentials from H to Rn.
 https://doi.org/10.1103/PhysRevB.58.3641

 G. Lippert, J. Hutter, M. Parrinello.
 Mol. Phys. 92, 477-487 (1997).
 A hybrid Gaussian and plane wave density functional scheme.
 https://doi.org/10.1080/002689797170220

 S. Goedecker, M. Teter, J. Hutter.
 Phys. Rev. B 54, 1703-1710 (1996).
 Separable dual-space Gaussian pseudopotentials.
 https://doi.org/10.1103/PhysRevB.54.1703

 J. P. Perdew, K. Burke, M. Ernzerhof.
 Phys. Rev. Lett. 77, 3865-3868 (1996).
 Generalized gradient approximation made simple.
 https://doi.org/10.1103/PhysRevLett.77.3865


 -------------------------------------------------------------------------------
 -                                                                             -
 -                                T I M I N G                                  -
 -                                                                             -
 -------------------------------------------------------------------------------
 SUBROUTINE                       CALLS  ASD         SELF TIME        TOTAL TIME
                                MAXIMUM       AVERAGE  MAXIMUM  AVERAGE  MAXIMUM
 CP2K                                 1  1.0    0.074    0.092 1234.701 1234.707
 qs_energies                          1  2.0    0.006    0.008 1232.935 1232.942
 scf_env_do_scf                       1  3.0    0.000    0.000 1231.420 1231.425
 qs_ks_update_qs_env                 31  5.0    0.000    0.000 1194.617 1194.625
 rebuild_ks_matrix                   28  6.0    0.000    0.000 1194.544 1194.550
 qs_ks_build_kohn_sham_matrix        28  7.0    0.004    0.005 1194.543 1194.550
 hfx_ks_matrix                       28  8.0    0.002    0.002 1102.673 1102.686
 integrate_four_center               28  9.0    1.394    1.851 1102.586 1102.596
 integrate_four_center_main          28 10.0    0.032    0.035 1031.351 1058.873
 integrate_four_center_bin         1792 11.0 1031.319 1058.840 1031.319 1058.840
 scf_env_do_scf_inner_loop           28  4.0    0.001    0.007  923.830  924.090
 init_scf_loop                        3  4.0    0.000    0.000  307.454  307.466
 mp_sync                            167 11.0   37.588   66.581   37.588   66.581
 parallel_gemm_fm                   117 10.2    0.000    0.000   31.638   31.885
 parallel_gemm_fm_gemm              117 11.2    0.000    0.000   31.638   31.885
 cp_fm_gemm                         117 12.2   31.637   31.884   31.637   31.884
 admm_mo_merge_ks_matrix             28  8.0    0.000    0.000   29.954   29.975
 merge_ks_matrix_none                28  9.0    0.001    0.002   29.954   29.975
 qs_vxc_create                       56  8.0    0.001    0.001   28.321   28.321
 xc_vxc_pw_create                    56  9.0    0.141    0.179   28.320   28.320
 fft_wrap_pw1pw2                    930 10.8    0.019    0.028   24.535   25.798
 -------------------------------------------------------------------------------

 The number of warnings for this run is : 2
 
 -------------------------------------------------------------------------------
  **** **** ******  **  PROGRAM ENDED AT                 2024-09-13 01:11:52.097
 ***** ** ***  *** **   PROGRAM RAN ON                                  nid06520
 **    ****   ******    PROGRAM RAN BY                                  bsertcan
 ***** **    ** ** **   PROGRAM PROCESS ID                                  4614
  **** **  *******  **  PROGRAM STOPPED IN /scratch/snx3000/bsertcan/MFU_sp/br/x
                                           e/rep36
