 DBCSR| CPU Multiplication driver                                           XSMM (U)
 DBCSR| Multrec recursion limit                                              512 (U)
 DBCSR| Multiplication stack size                                           1000 (D)
 DBCSR| Maximum elements for images                                    UNLIMITED (U)
 DBCSR| Multiplicative factor virtual images                                   1 (U)
 DBCSR| Use multiplication densification                                       T (D)
 DBCSR| Multiplication size stacks                                             3 (U)
 DBCSR| Use memory pool for CPU allocation                                     F (U)
 DBCSR| Number of 3D layers                                               SINGLE (U)
 DBCSR| Use MPI memory allocation                                              F (U)
 DBCSR| Use RMA algorithm                                                      F (U)
 DBCSR| Use Communication thread                                               T (U)
 DBCSR| Communication thread load                                             87 (D)
 DBCSR| MPI: My process id                                                     0
 DBCSR| MPI: Number of processes                                             144
 DBCSR| OMP: Current number of threads                                         1
 DBCSR| OMP: Max number of threads                                             1
 DBCSR| Split modifier for TAS multiplication algorithm                  1.0E+00 (U)


  **** **** ******  **  PROGRAM STARTED AT               2024-09-13 03:22:48.625
 ***** ** ***  *** **   PROGRAM STARTED ON                              nid04412
 **    ****   ******    PROGRAM STARTED BY                              bsertcan
 ***** **    ** ** **   PROGRAM PROCESS ID                                 20439
  **** **  *******  **  PROGRAM STARTED IN /scratch/snx3000/bsertcan/MFU_sp/rsca
                                           n/cl/xe/rep47

 CP2K| version string:                 CP2K version 2024.2 (Development Version)
 CP2K| source code revision number:                                  git:42d1e6b
 CP2K| cp2kflags: omp libint fftw3 libxc parallel scalapack xsmm                
 CP2K| is freely available from                            https://www.cp2k.org/
 CP2K| Program compiled at                         Tue Sep  3 22:59:39 CEST 2024
 CP2K| Program compiled on                                              daint106
 CP2K| Program compiled for                                                local
 CP2K| Data directory path                             /users/bsertcan/cp2k/data
 CP2K| Input file name                                                 input.inp

 GLOBAL| Force Environment number                                              1
 GLOBAL| Basis set file name                                    BASIS_MOLOPT_UZH
 GLOBAL| Potential file name                                       POTENTIAL_UZH
 GLOBAL| MM Potential file name                                     MM_POTENTIAL
 GLOBAL| Coordinate file name                                         rep_47.xyz
 GLOBAL| Method name                                                        CP2K
 GLOBAL| Project name                                                 Replica_47
 GLOBAL| Run type                                                         ENERGY
 GLOBAL| FFT library                                                       FFTW3
 GLOBAL| Diagonalization library                                       ScaLAPACK
 GLOBAL| DGEMM library                                                      BLAS
 GLOBAL| Orthonormality check for eigenvectors                          DISABLED
 GLOBAL| Matrix multiplication library                                 ScaLAPACK
 GLOBAL| All-to-all communication in single precision                          F
 GLOBAL| FFTs using library dependent lengths                                  F
 GLOBAL| Grid backend                                                       AUTO
 GLOBAL| Global print level                                                  LOW
 GLOBAL| MPI I/O enabled                                                       T
 GLOBAL| Total number of message passing processes                           144
 GLOBAL| Number of threads for this process                                    1
 GLOBAL| This output is from process                                           0
 GLOBAL| Stack size for threads created by OpenMP (OMP_STACKSIZE)             5M
 GLOBAL| CPU model name                Intel(R) Xeon(R) CPU E5-2690 v3 @ 2.60GHz
 GLOBAL| CPUID                                                              1002

 MEMORY| system memory details [Kb]
 MEMORY|                        rank 0           min           max       average
 MEMORY| MemTotal             65740148      65740148      65740148      65740148
 MEMORY| MemFree              60850104      60850104      60966160      60914315
 MEMORY| Buffers                  7804          7520          7804          7546
 MEMORY| Cached                1876280       1817488       1876280       1848202
 MEMORY| Slab                   219980        215984        219980        217315
 MEMORY| SReclaimable            51256         49888         51748         50531
 MEMORY| MemLikelyFree        62785444      62785444      62845320      62820594


 *******************************************************************************
 *******************************************************************************
 **                                                                           **
 **     #####                         ##              ##                      **
 **    ##   ##            ##          ##              ##                      **
 **   ##     ##                       ##            ######                    **
 **   ##     ##  ##   ##  ##   #####  ##  ##   ####   ##    #####    #####    **
 **   ##     ##  ##   ##  ##  ##      ## ##   ##      ##   ##   ##  ##   ##   **
 **   ##  ## ##  ##   ##  ##  ##      ####     ###    ##   ######   ######    **
 **    ##  ###   ##   ##  ##  ##      ## ##      ##   ##   ##       ##        **
 **     #######   #####   ##   #####  ##  ##  ####    ##    #####   ##        **
 **           ##                                                    ##        **
 **                                                                           **
 **                                                ... make the atoms dance   **
 **                                                                           **
 **            Copyright (C) by CP2K developers group (2000-2024)             **
 **                      J. Chem. Phys. 152, 194103 (2020)                    **
 **                                                                           **
 *******************************************************************************


 TOTAL NUMBERS AND MAXIMUM NUMBERS

  Total number of            - Atomic kinds:                                   6
                             - Atoms:                                        409
                             - Shell sets:                                   409
                             - Shells:                                      3617
                             - Primitive Cartesian functions:               2053
                             - Cartesian basis functions:                  13634
                             - Spherical basis functions:                  11621

  Maximum angular momentum of- Orbital basis functions:                        3
                             - Local part of the GTH pseudopotential:          2
                             - Non-local part of the GTH pseudopotential:      4

  AUX_FIT ADMM-Basis: 
  Total number of            - Shell sets:                                  2799
                             - Shells:                                      2799
                             - Primitive Cartesian functions:               3609
                             - Cartesian basis functions:                   7546
                             - Spherical basis functions:                   6985
                               Maximum angular momentum                        3


 SCF PARAMETERS         Density guess:                                   RESTART
                        --------------------------------------------------------
                        max_scf:                                              10
                        max_scf_history:                                       0
                        max_diis:                                              4
                        --------------------------------------------------------
                        eps_scf:                                        1.00E-06
                        eps_scf_history:                                0.00E+00
                        eps_diis:                                       1.00E-01
                        eps_eigval:                                     1.00E-05
                        --------------------------------------------------------
                        level_shift [a.u.]:                             0.000000
                        --------------------------------------------------------
                        Outer loop SCF in use 
                        No variables optimised in outer loop
                        eps_scf                                         1.00E-06
                        max_scf                                               10
                        No outer loop optimization
                        step_size                                       5.00E-01

 Number of electrons:                                                       2056
 Number of occupied orbitals:                                               1028
 Number of molecular orbitals:                                              1028

 Number of orbital functions:                                              11621
 Number of independent orbital functions:                                  11621

 Extrapolation method: initial_guess

 *** WARNING in qs_initial_guess.F:306 :: User requested to restart the   ***
 *** wavefunction from the file named: Replica_47-RESTART.wfn. This file  ***
 *** does not exist. Please check the existence of the file or change     ***
 *** properly the value of the keyword WFN_RESTART_FILE_NAME. Calculation ***
 *** continues using ATOMIC GUESS.                                        ***



 SCF WAVEFUNCTION OPTIMIZATION

  ----------------------------------- OT ---------------------------------------
  Minimizer      : DIIS                : direct inversion
                                         in the iterative subspace
                                         using   7 DIIS vectors
                                         safer DIIS on
  Preconditioner : FULL_SINGLE_INVERSE : inversion of 
                                         H + eS - 2*(Sc)(c^T*H*c+const)(Sc)^T
  Precond_solver : DEFAULT
  stepsize       :    0.08000000                  energy_gap     :    0.08000000
  eps_taylor     :   0.10000E-15                  max_taylor     :             4
  ----------------------------------- OT ---------------------------------------

  Step     Update method      Time    Convergence         Total energy    Change
  ------------------------------------------------------------------------------
     1 OT DIIS     0.80E-01    6.6     0.01137475     -5012.0876835333 -5.01E+03
     2 OT DIIS     0.80E-01    5.3     0.00705320     -5086.6909003460 -7.46E+01
     3 OT DIIS     0.80E-01    5.3     0.00678453     -5122.0141841164 -3.53E+01
     4 OT DIIS     0.80E-01    5.3     0.00615416     -5139.8442567916 -1.78E+01
     5 OT DIIS     0.80E-01    5.3     0.00344166     -5177.3666851127 -3.75E+01
     6 OT DIIS     0.80E-01    5.3     0.00258102     -5189.6518699217 -1.23E+01
     7 OT DIIS     0.80E-01    5.3     0.00194183     -5197.3468301369 -7.69E+00
     8 OT DIIS     0.80E-01    5.3     0.00129629     -5204.1981344157 -6.85E+00
     9 OT DIIS     0.80E-01    5.3     0.00104535     -5206.9105610696 -2.71E+00
    10 OT DIIS     0.80E-01    5.3     0.00074401     -5209.6037554024 -2.69E+00

  Leaving inner SCF loop after reaching    10 steps.


  Electronic density on regular grids:      -2055.9999999679        0.0000000321
  Core density on regular grids:             2055.9999998531       -0.0000001469
  Total charge density on r-space grids:       -0.0000001147
  Total charge density g-space grids:          -0.0000001147

  Overlap energy of the core charge distribution:               0.00004691945420
  Self energy of the core charge distribution:              -9860.83173999830615
  Core Hamiltonian energy:                                   2923.58574266238384
  Hartree energy:                                            2791.29442003229951
  Exchange-correlation energy:                              -1063.65222501820017

  Total energy:                                             -5209.60375540236782

  outer SCF iter =    1 RMS gradient =   0.74E-03 energy =      -5209.6037554024

  ----------------------------------- OT ---------------------------------------
  Minimizer      : DIIS                : direct inversion
                                         in the iterative subspace
                                         using   7 DIIS vectors
                                         safer DIIS on
  Preconditioner : FULL_SINGLE_INVERSE : inversion of 
                                         H + eS - 2*(Sc)(c^T*H*c+const)(Sc)^T
  Precond_solver : DEFAULT
  stepsize       :    0.08000000                  energy_gap     :    0.08000000
  eps_taylor     :   0.10000E-15                  max_taylor     :             4
  ----------------------------------- OT ---------------------------------------

  Step     Update method      Time    Convergence         Total energy    Change
  ------------------------------------------------------------------------------
     1 OT DIIS     0.80E-01   13.4     0.00120115     -5210.7252902344 -1.12E+00
     2 OT DIIS     0.80E-01    5.3     0.00103319     -5211.9999326825 -1.27E+00
     3 OT DIIS     0.80E-01    5.3     0.00058925     -5213.8836962581 -1.88E+00
     4 OT DIIS     0.80E-01    5.3     0.00044792     -5214.2699245861 -3.86E-01
     5 OT DIIS     0.80E-01    5.3     0.00034029     -5214.4066612439 -1.37E-01
     6 OT DIIS     0.80E-01    5.3     0.00021546     -5214.4993113331 -9.27E-02
     7 OT DIIS     0.80E-01    5.3     0.00015040     -5214.5318871622 -3.26E-02
     8 OT DIIS     0.80E-01    5.3     0.00010894     -5214.5484051258 -1.65E-02
     9 OT DIIS     0.80E-01    5.3     0.00008685     -5214.5644651498 -1.61E-02
    10 OT DIIS     0.80E-01    5.3     0.00006539     -5214.5747190078 -1.03E-02

  Leaving inner SCF loop after reaching    10 steps.


  Electronic density on regular grids:      -2055.9999999679        0.0000000321
  Core density on regular grids:             2055.9999998531       -0.0000001469
  Total charge density on r-space grids:       -0.0000001148
  Total charge density g-space grids:          -0.0000001148

  Overlap energy of the core charge distribution:               0.00004691945420
  Self energy of the core charge distribution:              -9860.83173999830615
  Core Hamiltonian energy:                                   2918.86215218783036
  Hartree energy:                                            2791.75126816270267
  Exchange-correlation energy:                              -1064.35644627949887

  Total energy:                                             -5214.57471900781638

  outer SCF iter =    2 RMS gradient =   0.65E-04 energy =      -5214.5747190078

  ----------------------------------- OT ---------------------------------------
  Minimizer      : DIIS                : direct inversion
                                         in the iterative subspace
                                         using   7 DIIS vectors
                                         safer DIIS on
  Preconditioner : FULL_SINGLE_INVERSE : inversion of 
                                         H + eS - 2*(Sc)(c^T*H*c+const)(Sc)^T
  Precond_solver : DEFAULT
  stepsize       :    0.08000000                  energy_gap     :    0.08000000
  eps_taylor     :   0.10000E-15                  max_taylor     :             4
  ----------------------------------- OT ---------------------------------------

  Step     Update method      Time    Convergence         Total energy    Change
  ------------------------------------------------------------------------------
     1 OT DIIS     0.80E-01   13.2     0.00006800     -5214.5794598257 -4.74E-03
     2 OT DIIS     0.80E-01    5.2     0.00008409     -5214.5829062607 -3.45E-03
     3 OT DIIS     0.80E-01    5.2     0.00006420     -5214.5845211527 -1.61E-03
     4 OT SD       0.80E-01    5.2     0.00006598     -5214.5856621059 -1.14E-03
     5 OT SD       0.80E-01    5.2     0.00007625     -5214.5900797670 -4.42E-03
     6 OT SD       0.80E-01    5.3     0.00009465     -5214.5961888896 -6.11E-03
     7 OT SD       0.80E-01    5.3     0.00012272     -5214.6055664897 -9.38E-03
     8 OT SD       0.80E-01    5.3     0.00016629     -5214.6200792700 -1.45E-02
     9 OT SD       0.80E-01    5.3     0.00024643     -5214.6398754925 -1.98E-02
    10 OT SD       0.80E-01    5.3     0.00041019     -5214.6560513158 -1.62E-02

  Leaving inner SCF loop after reaching    10 steps.


  Electronic density on regular grids:      -2055.9999999679        0.0000000321
  Core density on regular grids:             2055.9999998531       -0.0000001469
  Total charge density on r-space grids:       -0.0000001148
  Total charge density g-space grids:          -0.0000001148

  Overlap energy of the core charge distribution:               0.00004691945420
  Self energy of the core charge distribution:              -9860.83173999830615
  Core Hamiltonian energy:                                   2918.65289552242029
  Hartree energy:                                            2791.86965837565731
  Exchange-correlation energy:                              -1064.34691213502219

  Total energy:                                             -5214.65605131579650

  outer SCF iter =    3 RMS gradient =   0.41E-03 energy =      -5214.6560513158

  ----------------------------------- OT ---------------------------------------
  Minimizer      : DIIS                : direct inversion
                                         in the iterative subspace
                                         using   7 DIIS vectors
                                         safer DIIS on
  Preconditioner : FULL_SINGLE_INVERSE : inversion of 
                                         H + eS - 2*(Sc)(c^T*H*c+const)(Sc)^T
  Precond_solver : DEFAULT
  stepsize       :    0.08000000                  energy_gap     :    0.08000000
  eps_taylor     :   0.10000E-15                  max_taylor     :             4
  ----------------------------------- OT ---------------------------------------

  Step     Update method      Time    Convergence         Total energy    Change
  ------------------------------------------------------------------------------
     1 OT DIIS     0.80E-01   13.3     0.00070851     -5214.6377414836  1.83E-02
     2 OT DIIS     0.80E-01    5.3     0.00126544     -5214.4514367640  1.86E-01
     3 OT DIIS     0.80E-01    5.3     0.00014528     -5214.7452726834 -2.94E-01
     4 OT DIIS     0.80E-01    5.3     0.00011586     -5214.7588864407 -1.36E-02
     5 OT DIIS     0.80E-01    5.3     0.00010058     -5214.7795096182 -2.06E-02
     6 OT DIIS     0.80E-01    5.3     0.00004355     -5214.7812008901 -1.69E-03
     7 OT DIIS     0.80E-01    5.3     0.00002293     -5214.7822384848 -1.04E-03
     8 OT DIIS     0.80E-01    5.3     0.00000792     -5214.7824834900 -2.45E-04
     9 OT DIIS     0.80E-01    5.3     0.00000403     -5214.7825220237 -3.85E-05
    10 OT DIIS     0.80E-01    5.3     0.00000295     -5214.7825407758 -1.88E-05

  Leaving inner SCF loop after reaching    10 steps.


  Electronic density on regular grids:      -2055.9999999679        0.0000000321
  Core density on regular grids:             2055.9999998531       -0.0000001469
  Total charge density on r-space grids:       -0.0000001148
  Total charge density g-space grids:          -0.0000001148

  Overlap energy of the core charge distribution:               0.00004691945420
  Self energy of the core charge distribution:              -9860.83173999830615
  Core Hamiltonian energy:                                   2918.49865579611969
  Hartree energy:                                            2791.90666187225816
  Exchange-correlation energy:                              -1064.35616536528710

  Total energy:                                             -5214.78254077576003

  outer SCF iter =    4 RMS gradient =   0.30E-05 energy =      -5214.7825407758

  ----------------------------------- OT ---------------------------------------
  Minimizer      : DIIS                : direct inversion
                                         in the iterative subspace
                                         using   7 DIIS vectors
                                         safer DIIS on
  Preconditioner : FULL_SINGLE_INVERSE : inversion of 
                                         H + eS - 2*(Sc)(c^T*H*c+const)(Sc)^T
  Precond_solver : DEFAULT
  stepsize       :    0.08000000                  energy_gap     :    0.08000000
  eps_taylor     :   0.10000E-15                  max_taylor     :             4
  ----------------------------------- OT ---------------------------------------

  Step     Update method      Time    Convergence         Total energy    Change
  ------------------------------------------------------------------------------
     1 OT DIIS     0.80E-01   13.2     0.00000279     -5214.7825461503 -5.37E-06
     2 OT DIIS     0.80E-01    5.2     0.00000311     -5214.7825483922 -2.24E-06
     3 OT DIIS     0.80E-01    5.1     0.00000127     -5214.7825507482 -2.36E-06
     4 OT DIIS     0.80E-01    5.1     0.00000077     -5214.7825533764 -2.63E-06

  *** SCF run converged in     4 steps ***


  Electronic density on regular grids:      -2055.9999999679        0.0000000321
  Core density on regular grids:             2055.9999998531       -0.0000001469
  Total charge density on r-space grids:       -0.0000001148
  Total charge density g-space grids:          -0.0000001148

  Overlap energy of the core charge distribution:               0.00004691945420
  Self energy of the core charge distribution:              -9860.83173999830615
  Core Hamiltonian energy:                                   2918.49683514661729
  Hartree energy:                                            2791.90816927263950
  Exchange-correlation energy:                              -1064.35586471683564

  Total energy:                                             -5214.78255337642986

  outer SCF iter =    5 RMS gradient =   0.77E-06 energy =      -5214.7825533764
  outer SCF loop converged in   5 iterations or   44 steps


 ENERGY| Total FORCE_EVAL ( QS ) energy [a.u.]:            -5214.782553376429860

 -------------------------------------------------------------------------------
 -                                                                             -
 -                                DBCSR STATISTICS                             -
 -                                                                             -
 -------------------------------------------------------------------------------
 COUNTER                                    TOTAL       BLAS       SMM       ACC
 flops    14 x     4 x     4               215040       0.0%    100.0%      0.0%     
 flops     4 x     4 x   976               312320       0.0%    100.0%      0.0%     
 flops    41 x     4 x     4               524800       0.0%    100.0%      0.0%     
 flops     4 x     4 x   974               623360       0.0%    100.0%      0.0%     
 flops     4 x     4 x   962               769600       0.0%    100.0%      0.0%     
 flops    29 x     4 x     4              2978880       0.0%    100.0%      0.0%     
 flops    14 x    32 x     4             27525120       0.0%    100.0%      0.0%     
 flops    14 x     4 x    32             27525120       0.0%    100.0%      0.0%     
 flops    32 x     4 x   976             39976960       0.0%    100.0%      0.0%     
 flops     4 x    32 x   976             39976960       0.0%    100.0%      0.0%     
 flops    41 x    32 x     4             67174400       0.0%    100.0%      0.0%     
 flops    41 x     4 x    32             67174400       0.0%    100.0%      0.0%     
 flops    32 x     4 x   974             79790080       0.0%    100.0%      0.0%     
 flops     4 x    32 x   974             79790080       0.0%    100.0%      0.0%     
 flops    32 x     4 x   962             98508800       0.0%    100.0%      0.0%     
 flops     4 x    32 x   962             98508800       0.0%    100.0%      0.0%     
 flops    14 x     4 x    14            165580800       0.0%    100.0%      0.0%     
 flops    68 x    68 x    68            204380800       0.0%    100.0%      0.0%     
 flops    29 x    32 x     4            381296640       0.0%    100.0%      0.0%     
 flops    29 x     4 x    32            381296640       0.0%    100.0%      0.0%     
 flops    64 x    68 x    68            577075200       0.0%    100.0%      0.0%     
 flops    68 x    64 x    68            577075200       0.0%    100.0%      0.0%     
 flops    68 x    68 x    64            577075200       0.0%    100.0%      0.0%     
 flops    41 x    14 x    68            580796160       0.0%    100.0%      0.0%     
 flops    14 x    14 x    68            761295360       0.0%    100.0%      0.0%     
 flops    41 x     4 x    14            775864320       0.0%    100.0%      0.0%     
 flops    14 x     4 x    41            775864320       0.0%    100.0%      0.0%     
 flops    64 x    64 x    68           1629388800       0.0%    100.0%      0.0%     
 flops    64 x    68 x    64           1629388800       0.0%    100.0%      0.0%     
 flops    68 x    64 x    64           1629388800       0.0%    100.0%      0.0%     
 flops    41 x    14 x    64           1639895040       0.0%    100.0%      0.0%     
 flops   963 x    68 x    68           1870223040       0.0%    100.0%      0.0%     
 flops    14 x    14 x    64           2149539840       0.0%    100.0%      0.0%     
 flops    68 x    68 x    96           2308300800       0.0%    100.0%      0.0%     
 flops    68 x    96 x    68           2308300800       0.0%    100.0%      0.0%     
 flops    96 x    68 x    68           2308300800       0.0%    100.0%      0.0%     
 flops    41 x     4 x    41           2355013760       0.0%    100.0%      0.0%     
 flops    14 x     4 x    29           2558839360       0.0%    100.0%      0.0%     
 flops    29 x     4 x    14           2558839360       0.0%    100.0%      0.0%     
 flops    68 x    68 x   976           3086908416       0.0%    100.0%      0.0%     
 flops   976 x    68 x    68           3790940160       0.0%    100.0%      0.0%     
 flops    64 x    64 x    64           4600627200       0.0%    100.0%      0.0%     
 flops   963 x    64 x    68           5280629760       0.0%    100.0%      0.0%     
 flops   963 x    68 x    64           5280629760       0.0%    100.0%      0.0%     
 flops    14 x    41 x    68           5564401920       0.0%    100.0%      0.0%     
 flops    68 x    68 x   974           6161165568       0.0%    100.0%      0.0%     
 flops    64 x    68 x    96           6517555200       0.0%    100.0%      0.0%     
 flops    64 x    96 x    68           6517555200       0.0%    100.0%      0.0%     
 flops    68 x    64 x    96           6517555200       0.0%    100.0%      0.0%     
 flops    68 x    96 x    64           6517555200       0.0%    100.0%      0.0%     
 flops    96 x    64 x    68           6517555200       0.0%    100.0%      0.0%     
 flops    96 x    68 x    64           6517555200       0.0%    100.0%      0.0%     
 flops    41 x    14 x    96           6559580160       0.0%    100.0%      0.0%     
 flops    14 x    32 x    32           7266631680       0.0%    100.0%      0.0%     
 flops   974 x    68 x    68           7566343680       0.0%    100.0%      0.0%     
 flops    68 x    68 x   962           7606572480       0.0%    100.0%      0.0%     
 flops    14 x    14 x    96           8598159360       0.0%    100.0%      0.0%     
 flops    64 x    68 x   976           8715976704       0.0%    100.0%      0.0%     
 flops    68 x    64 x   976           8715976704       0.0%    100.0%      0.0%     
 flops    41 x    41 x    68           9332105120       0.0%    100.0%      0.0%     
 flops   962 x    68 x    68           9341404800       0.0%    100.0%      0.0%     
 flops    14 x    29 x    68           9488317440       0.0%    100.0%      0.0%     
 flops    32 x    32 x   976          10553917440       0.0%    100.0%      0.0%     
 flops   976 x    64 x    68          10703831040       0.0%    100.0%      0.0%     
 flops   976 x    68 x    64          10703831040       0.0%    100.0%      0.0%     
 flops   963 x    68 x   976          12526827264       0.0%    100.0%      0.0%     
 flops    41 x     4 x    29          12530728320       0.0%    100.0%      0.0%     
 flops    29 x     4 x    41          12530728320       0.0%    100.0%      0.0%     
 flops    29 x    14 x    68          12561087840       0.0%    100.0%      0.0%     
 flops   963 x    64 x    64          14910013440       0.0%    100.0%      0.0%     
 flops    14 x    41 x    64          15711252480       0.0%    100.0%      0.0%     
 flops    64 x    68 x   974          17396232192       0.0%    100.0%      0.0%     
 flops    68 x    64 x   974          17396232192       0.0%    100.0%      0.0%     
 flops    41 x    32 x    32          17734041600       0.0%    100.0%      0.0%     
 flops    64 x    64 x    96          18402508800       0.0%    100.0%      0.0%     
 flops    64 x    96 x    64          18402508800       0.0%    100.0%      0.0%     
 flops    96 x    64 x    64          18402508800       0.0%    100.0%      0.0%     
 flops    32 x    32 x   974          21064581120       0.0%    100.0%      0.0%     
 flops   963 x    68 x    96          21122519040       0.0%    100.0%      0.0%     
 flops   963 x    96 x    68          21122519040       0.0%    100.0%      0.0%     
 flops   974 x    64 x    68          21363793920       0.0%    100.0%      0.0%     
 flops   974 x    68 x    64          21363793920       0.0%    100.0%      0.0%     
 flops    64 x    68 x   962          21477381120       0.0%    100.0%      0.0%     
 flops    68 x    64 x   962          21477381120       0.0%    100.0%      0.0%     
 flops    64 x    64 x   976          24609816576       0.0%    100.0%      0.0%     
 flops   963 x    68 x   974          25002315072       0.0%    100.0%      0.0%     
 flops   976 x    68 x   976          25391865856       0.0%    100.0%      0.0%     
 flops    32 x    32 x   962          26006323200       0.0%    100.0%      0.0%     
 flops    96 x    96 x    68          26070220800       0.0%    100.0%      0.0%     
 flops    68 x    96 x    96          26070220800       0.0%    100.0%      0.0%     
 flops    96 x    68 x    96          26070220800       0.0%    100.0%      0.0%     
 flops    41 x    41 x    64          26349473280       0.0%    100.0%      0.0%     
 flops   962 x    64 x    68          26375731200       0.0%    100.0%      0.0%     
 flops   962 x    68 x    64          26375731200       0.0%    100.0%      0.0%     
 flops    14 x    29 x    64          26790543360       0.0%    100.0%      0.0%     
 flops   976 x    64 x    64          30222581760       0.0%    100.0%      0.0%     
 flops   963 x    68 x   962          30867847920       0.0%    100.0%      0.0%     
 flops    68 x    96 x   976          34863906816       0.0%    100.0%      0.0%     
 flops    96 x    68 x   976          34863906816       0.0%    100.0%      0.0%     
 flops   963 x    64 x   976          35369865216       0.0%    100.0%      0.0%     
 flops    29 x    14 x    64          35466600960       0.0%    100.0%      0.0%     
 flops    29 x    41 x    68          41506182720       0.0%    100.0%      0.0%     
 flops    14 x    32 x    14          42388684800       0.0%    100.0%      0.0%     
 flops   976 x    68 x    96          42815324160       0.0%    100.0%      0.0%     
 flops   976 x    96 x    68          42815324160       0.0%    100.0%      0.0%     
 flops    29 x     4 x    29          44833306320       0.0%    100.0%      0.0%     
 flops    64 x    64 x   974          49118773248       0.0%    100.0%      0.0%     
 flops   976 x    68 x   974          50679666688       0.0%    100.0%      0.0%     
 flops   974 x    68 x   976          50679666688       0.0%    100.0%      0.0%     
 flops    41 x    29 x    68          56020733760       0.0%    100.0%      0.0%     
 flops   963 x    64 x    96          59640053760       0.0%    100.0%      0.0%     
 flops   963 x    96 x    64          59640053760       0.0%    100.0%      0.0%     
 flops   974 x    64 x    64          60321300480       0.0%    100.0%      0.0%     
 flops    64 x    64 x   962          60642017280       0.0%    100.0%      0.0%     
 flops   976 x    68 x   962          62569095680       0.0%    100.0%      0.0%     
 flops   962 x    68 x   976          62569095680       0.0%    100.0%      0.0%     
 flops    14 x    41 x    96          62845009920       0.0%    100.0%      0.0%     
 flops    68 x    96 x   974          69584928768       0.0%    100.0%      0.0%     
 flops    96 x    68 x   974          69584928768       0.0%    100.0%      0.0%     
 flops   963 x    64 x   974          70594771968       0.0%    100.0%      0.0%     
 flops   976 x    64 x   976          71694680064       0.0%    100.0%      0.0%     
 flops    96 x    96 x    64          73610035200       0.0%    100.0%      0.0%     
 flops    64 x    96 x    96          73610035200       0.0%    100.0%      0.0%     
 flops    96 x    64 x    96          73610035200       0.0%    100.0%      0.0%     
 flops   962 x    64 x    64          74472652800       0.0%    100.0%      0.0%     
 flops   974 x    96 x    68          85455175680       0.0%    100.0%      0.0%     
 flops   974 x    68 x    96          85455175680       0.0%    100.0%      0.0%     
 flops    68 x    96 x   962          85909524480       0.0%    100.0%      0.0%     
 flops    96 x    68 x   962          85909524480       0.0%    100.0%      0.0%     
 flops   963 x    64 x   962          87156276480       0.0%    100.0%      0.0%     
 flops    64 x    96 x   976          98439266304       0.0%    100.0%      0.0%     
 flops    96 x    64 x   976          98439266304       0.0%    100.0%      0.0%     
 flops    29 x    32 x    32         100662312960       0.0%    100.0%      0.0%     
 flops   974 x    68 x   974         101151629824       0.0%    100.0%      0.0%     
 flops    41 x    41 x    96         105397893120       0.0%    100.0%      0.0%     
 flops   962 x    68 x    96         105502924800       0.0%    100.0%      0.0%     
 flops   962 x    96 x    68         105502924800       0.0%    100.0%      0.0%     
 flops    14 x    29 x    96         107162173440       0.0%    100.0%      0.0%     
 flops    29 x    41 x    64         117193927680       0.0%    100.0%      0.0%     
 flops   976 x    64 x    96         120890327040       0.0%    100.0%      0.0%     
 flops   976 x    96 x    64         120890327040       0.0%    100.0%      0.0%     
 flops   962 x    68 x   974         124881760640       0.0%    100.0%      0.0%     
 flops   974 x    68 x   962         124881760640       0.0%    100.0%      0.0%     
 flops   963 x    96 x   976         141479460864       0.0%    100.0%      0.0%     
 flops    29 x    14 x    96         141866403840       0.0%    100.0%      0.0%     
 flops   976 x    64 x   974         143095529472       0.0%    100.0%      0.0%     
 flops   974 x    64 x   976         143095529472       0.0%    100.0%      0.0%     
 flops   962 x    68 x   962         154178970400       0.0%    100.0%      0.0%     
 flops    41 x    29 x    64         158176189440       0.0%    100.0%      0.0%     
 flops   976 x    64 x   962         176665681920       0.0%    100.0%      0.0%     
 flops   962 x    64 x   976         176665681920       0.0%    100.0%      0.0%     
 flops    29 x    29 x    68         186279044280       0.0%    100.0%      0.0%     
 flops    64 x    96 x   974         196475092992       0.0%    100.0%      0.0%     
 flops    96 x    64 x   974         196475092992       0.0%    100.0%      0.0%     
 flops    41 x    32 x    14         198621265920       0.0%    100.0%      0.0%     
 flops    14 x    32 x    41         198621265920       0.0%    100.0%      0.0%     
 flops   963 x    96 x    96         238560215040       0.0%    100.0%      0.0%     
 flops   974 x    96 x    64         241285201920       0.0%    100.0%      0.0%     
 flops   974 x    64 x    96         241285201920       0.0%    100.0%      0.0%     
 flops    64 x    96 x   962         242568069120       0.0%    100.0%      0.0%     
 flops    96 x    64 x   962         242568069120       0.0%    100.0%      0.0%     
 flops   963 x    96 x   974         282379087872       0.0%    100.0%      0.0%     
 flops   974 x    64 x   974         285604601856       0.0%    100.0%      0.0%     
 flops   976 x    96 x   976         286778720256       0.0%    100.0%      0.0%     
 flops    96 x    96 x    96         294440140800       0.0%    100.0%      0.0%     
 flops   962 x    64 x    96         297890611200       0.0%    100.0%      0.0%     
 flops   962 x    96 x    64         297890611200       0.0%    100.0%      0.0%     
 flops   963 x    96 x   962         348625105920       0.0%    100.0%      0.0%     
 flops   962 x    64 x   974         352607324160       0.0%    100.0%      0.0%     
 flops   974 x    64 x   962         352607324160       0.0%    100.0%      0.0%     
 flops    96 x    96 x   976         393757065216       0.0%    100.0%      0.0%     
 flops   962 x    64 x   962         435328857600       0.0%    100.0%      0.0%     
 flops    29 x    41 x    96         468775710720       0.0%    100.0%      0.0%     
 flops   976 x    96 x    96         483561308160       0.0%    100.0%      0.0%     
 flops    29 x    29 x    64         525964360320       0.0%    100.0%      0.0%     
 flops   974 x    96 x   976         572382117888       0.0%    100.0%      0.0%     
 flops   976 x    96 x   974         572382117888       0.0%    100.0%      0.0%     
 flops    41 x    32 x    41         602883522560       0.0%    100.0%      0.0%     
 flops    41 x    29 x    96         632704757760       0.0%    100.0%      0.0%     
 flops    14 x    32 x    29         655062876160       0.0%    100.0%      0.0%     
 flops    29 x    32 x    14         655062876160       0.0%    100.0%      0.0%     
 flops   976 x    96 x   962         706662727680       0.0%    100.0%      0.0%     
 flops   962 x    96 x   976         706662727680       0.0%    100.0%      0.0%     
 flops    96 x    96 x   974         785900371968       0.0%    100.0%      0.0%     
 flops   974 x    96 x    96         965140807680       0.0%    100.0%      0.0%     
 flops    96 x    96 x   962         970272276480       0.0%    100.0%      0.0%     
 flops   974 x    96 x   974        1142418407424       0.0%    100.0%      0.0%     
 flops   962 x    96 x    96        1191562444800       0.0%    100.0%      0.0%     
 flops   974 x    96 x   962        1410429296640       0.0%    100.0%      0.0%     
 flops   962 x    96 x   974        1410429296640       0.0%    100.0%      0.0%     
 flops   962 x    96 x   962        1741315430400       0.0%    100.0%      0.0%     
 flops    29 x    29 x    96        2103857441280       0.0%    100.0%      0.0%     
 flops    41 x    32 x    29        3207866449920       0.0%    100.0%      0.0%     
 flops    29 x    32 x    41        3207866449920       0.0%    100.0%      0.0%     
 flops    29 x    32 x    29       11477326417920       0.0%    100.0%      0.0%     
 flops inhomo. stacks               1501000932992     100.0%      0.0%      0.0%
 flops total                        49.073713E+12       3.1%     96.9%      0.0%
 flops max/rank                    392.230017E+09       3.1%     96.9%      0.0%
 matmuls inhomo. stacks                     34485     100.0%      0.0%      0.0%
 matmuls total                          416242020       0.0%    100.0%      0.0%
 number of processed stacks               4042435       0.8%     99.2%      0.0%
 average stack size                                     1.1     103.8       0.0
 marketing flops                    68.585385E+12
 -------------------------------------------------------------------------------
 # multiplications                            935
 max memory usage/rank             600.485888E+06
 # max total images/rank                        1
 # max 3D layers                                1
 # MPI messages exchanged                 2962080
 MPI messages size (bytes):
  total size                         2.406325E+12
  min size                           0.000000E+00
  max size                           7.620608E+06
  average size                     812.376812E+03
 MPI breakdown and total messages size (bytes):
             size <=      128               23100                        0
       128 < size <=     8192                   0                        0
      8192 < size <=    32768               86295               2820512640
     32768 < size <=   131072             1284525              77636310400
    131072 < size <=  4194304             1316304             873615461664
   4194304 < size <= 16777216              251856            1452257841672
  16777216 < size                               0                        0
 -------------------------------------------------------------------------------
 -                                                                             -
 -                      DBCSR MESSAGE PASSING PERFORMANCE                      -
 -                                                                             -
 -------------------------------------------------------------------------------
 ROUTINE             CALLS      AVE VOLUME [Bytes]
 MP_Bcast              196                     12.
 MP_Allreduce         5330                     25.
 MP_Alltoall          3481                 162910.
 MP_ISend            44860                 383996.
 MP_IRecv            44860                 381609.
 -------------------------------------------------------------------------------

 -------------------------------------------------------------------------------
 -                                                                             -
 -                                DBM STATISTICS                               -
 -                                                                             -
 -------------------------------------------------------------------------------
    M  x    N  x    K                                          COUNT     PERCENT
 -------------------------------------------------------------------------------

 -------------------------------------------------------------------------------
 -                                                                             -
 -                                GRID STATISTICS                              -
 -                                                                             -
 -------------------------------------------------------------------------------
 LP    KERNEL             BACKEND                              COUNT     PERCENT
 6     collocate ortho    CPU                               12011850      21.45%
 8     collocate ortho    CPU                               11873610      21.21%
 6     integrate ortho    CPU                               11744920      20.98%
 8     integrate ortho    CPU                               11609752      20.74%
 5     collocate ortho    CPU                                2127600       3.80%
 7     collocate ortho    CPU                                2127600       3.80%
 5     integrate ortho    CPU                                2080320       3.72%
 7     integrate ortho    CPU                                2080320       3.72%
 4     collocate ortho    CPU                                 138240       0.25%
 4     integrate ortho    CPU                                 135168       0.24%
 0     collocate general  CPU                                  58896       0.11%
 -------------------------------------------------------------------------------

 MEMORY| Estimated peak process memory [MiB]                                 573

 -------------------------------------------------------------------------------
 -                                                                             -
 -                         MESSAGE PASSING PERFORMANCE                         -
 -                                                                             -
 -------------------------------------------------------------------------------

 ROUTINE             CALLS      AVE VOLUME [Bytes]
 MP_Group                4
 MP_Bcast             4200                3565381.
 MP_Allreduce         9784                   2840.
 MP_Sync                39
 MP_Alltoall          1526               16433765.
 MP_SendRecv         25740                  98624.
 MP_ISendRecv        25168                  98624.
 MP_Wait             41590
 MP_comm_split          35
 MP_ISend            14994                 575772.
 MP_IRecv            14994                 575792.
 -------------------------------------------------------------------------------


 -------------------------------------------------------------------------------
 -                                                                             -
 -                           R E F E R E N C E S                               -
 -                                                                             -
 -------------------------------------------------------------------------------
 
 CP2K version 2024.2 (Development Version), the CP2K developers group (2024).
 CP2K is freely available from https://www.cp2k.org/ .
 
 T. D. Kuehne, M. Iannuzzi, M. Del Ben, V. V. Rybkin, P. Seewald, F. Stein, T. 
 Laino, R. Z. Khaliullin, O. Schuett, F. Schiffmann, D. Golze, J. Wilhelm, S. 
 Chulkov, M. H. Bani-Hashemian, V. Weber, U. Borstnik, M. Taillefumier, A. S. 
 Jakobovits, A. Lazzaro, H. Pabst, T. Mueller, R. Schade, M. Guidon, S. 
 Andermatt, N. Holmberg, G. K. Schenter, A. Hehn, A. Bussy, F. Belleflamme, G. 
 Tabacchi, A. Gloess, M. Lass, I. Bethune, C. J. Mundy, C. Plessl, M. Watkins, 
 J. VandeVondele, M. Krack, J. Hutter.
 J. Chem. Phys. 152, 194103 (2020).
 CP2K: An electronic structure and molecular dynamics software package - 
 Quickstep: Efficient and accurate electronic structure calculations.
 https://doi.org/10.1063/5.0007045

 S. Lehtola, C. Steigemann, M. J. T. Oliveira, M. A. L. Marques.
 SoftwareX 7, 1-5 (2018).
 Recent developments in libxc - A comprehensive library of functionals for 
 density functional theory.
 https://doi.org/10.1016/j.softx.2017.11.002

 O. Schuett, P. Messmer, J. Hutter, J. VandeVondele.
 Electronic Structure Calculations on Graphics Processing Units, 173-190 (2016).
 GPU-Accelerated Sparse Matrix-Matrix Multiplication for Linear Scaling Density 
 Functional Theory.
 https://doi.org/10.1002/9781118670712.ch8

 A. Heinecke, G. Henry, M. Hutchinson, H. Pabst.
 Proceedings of Intl. Supercomputing Conference, 981-991 (2016).
 LIBXSMM: Accelerating Small Matrix Multiplications by Runtime Code Generation.
 https://doi.org/10.1109/SC.2016.83

 J. Hutter, M. Iannuzzi, F. Schiffmann, J. VandeVondele.
 WIREs Comput Mol Sci. 4, 15-25 (2014).
 CP2K: atomistic simulations of condensed matter systems.
 https://doi.org/10.1002/wcms.1159

 U. Borstnik, J. VandeVondele, V. Weber, J. Hutter.
 Parallel Comput. 40, 47-58 (2014).
 Sparse matrix multiplication: The distributed block-compressed sparse row 
 library.
 https://doi.org/10.1016/j.parco.2014.03.012

 M. A. L. Marques, M. J. T. Oliveira, T. Burnus.
 Comput. Phys. Commun. 183, 2272-2281 (2012).
 LIBXC: A library of exchange and correlation functionals for density functional 
 theory.
 https://doi.org/10.1016/j.cpc.2012.05.007

 J. VandeVondele, J. Hutter.
 J. Chem. Phys. 127, 114105 (2007).
 Gaussian basis sets for accurate calculations on molecular systems in gas and 
 condensed phases.
 https://doi.org/10.1063/1.2770708

 J. VandeVondele, M. Krack, F. Mohamed, M. Parrinello, T. Chassaing, J. Hutter.
 Comput. Phys. Commun. 167, 103-128 (2005).
 QUICKSTEP: Fast and accurate density functional calculations using a mixed 
 Gaussian and plane waves approach.
 https://doi.org/10.1016/j.cpc.2004.12.014

 M. Krack.
 Theor. Chem. Acc. 114, 145-152 (2005).
 Pseudopotentials for H to Kr optimized for gradient-corrected 
 exchange-correlation functionals.
 https://doi.org/10.1007/s00214-005-0655-y

 M. Frigo, S. G. Johnson.
 Proc. IEEE 93, 216-231 (2005).
 The design and implementation of FFTW3.
 https://doi.org/10.1109/JPROC.2004.840301

 J. VandeVondele, J. Hutter.
 J. Chem. Phys. 118, 4365-4369 (2003).
 An efficient orbital transformation method for electronic structure 
 calculations.
 https://doi.org/10.1063/1.1543154

 C. Hartwigsen, S. Goedecker, J. Hutter.
 Phys. Rev. B 58, 3641-3662 (1998).
 Relativistic separable dual-space Gaussian pseudopotentials from H to Rn.
 https://doi.org/10.1103/PhysRevB.58.3641

 G. Lippert, J. Hutter, M. Parrinello.
 Mol. Phys. 92, 477-487 (1997).
 A hybrid Gaussian and plane wave density functional scheme.
 https://doi.org/10.1080/002689797170220

 S. Goedecker, M. Teter, J. Hutter.
 Phys. Rev. B 54, 1703-1710 (1996).
 Separable dual-space Gaussian pseudopotentials.
 https://doi.org/10.1103/PhysRevB.54.1703


 -------------------------------------------------------------------------------
 -                                                                             -
 -                                T I M I N G                                  -
 -                                                                             -
 -------------------------------------------------------------------------------
 SUBROUTINE                       CALLS  ASD         SELF TIME        TOTAL TIME
                                MAXIMUM       AVERAGE  MAXIMUM  AVERAGE  MAXIMUM
 CP2K                                 1  1.0    0.017    0.038  250.589  250.590
 qs_energies                          1  2.0    0.008    0.011  248.923  248.926
 scf_env_do_scf                       1  3.0    0.000    0.000  246.170  246.172
 scf_env_do_scf_inner_loop           44  4.0    0.001    0.008  217.321  217.718
 qs_ks_update_qs_env                 49  5.0    0.000    0.000  137.597  137.789
 rebuild_ks_matrix                   44  6.0    0.000    0.000  137.495  137.684
 qs_ks_build_kohn_sham_matrix        44  7.0    0.007    0.008  137.495  137.684
 sum_up_and_integrate                44  8.0    0.002    0.003   70.198   70.206
 integrate_v_rspace                  88  9.0    0.004    0.005   69.914   69.923
 qs_rho_update_rho_low               45  5.0    0.000    0.000   69.544   69.585
 calculate_rho_elec                  90  6.0    0.203    0.209   69.543   69.585
 fft_wrap_pw1pw2                   1155  9.9    0.024    0.034   55.335   56.903
 qs_vxc_create                       44  8.0    0.001    0.001   55.456   55.480
 xc_vxc_pw_create                    44  9.0    0.418    0.499   55.455   55.479
 fft_wrap_pw1pw2_500                621 11.3    2.374    2.424   52.377   53.958
 grid_integrate_task_list            88 10.0   42.144   44.590   42.144   44.590
 fft3d_ps                          1155 11.9   20.372   20.855   42.455   44.393
 grid_collocate_task_list            90  7.0   37.201   39.873   37.201   39.873
 xc_rho_set_and_dset_create          44 10.0    0.419    0.496   36.871   37.411
 density_rs2pw                       90  7.0    0.007    0.007   31.399   33.936
 dbcsr_multiply_generic             935 10.0    0.052    0.057   29.185   29.673
 init_scf_loop                        5  4.0    0.000    0.000   28.717   28.740
 qs_scf_new_mos                      44  5.0    0.000    0.000   27.299   27.703
 qs_scf_loop_do_ot                   44  6.0    0.000    0.000   27.299   27.703
 xc_pw_derive                       264 11.0    0.006    0.007   25.976   27.580
 ot_scf_mini                         44  7.0    0.001    0.001   25.329   25.681
 potential_pw2rs                     88 10.0    0.017    0.019   24.510   24.549
 multiply_cannon                    935 11.0    0.075    0.089   23.419   24.530
 xc_functional_eval                  88 11.0    0.001    0.001   23.363   23.847
 libxc_lda_eval                      88 12.0   23.360   23.845   23.362   23.846
 multiply_cannon_loop               935 12.0    0.102    0.108   21.893   22.929
 xc_pw_divergence                    44 10.0    0.003    0.004   17.777   19.275
 mp_alltoall_z22v                  1155 13.9   15.580   17.074   15.580   17.074
 transfer_rs2pw                     361  8.0    0.005    0.008   13.978   16.532
 multiply_cannon_multrec          11220 13.0   14.297   15.893   14.303   15.899
 transfer_pw2rs                     352 11.0    0.005    0.007   15.123   15.137
 mp_waitall_1                    131316 13.8   10.742   14.342   10.742   14.342
 ot_mini                             44  8.0    0.000    0.000   13.381   13.780
 yz_to_x                            491 12.6    3.074    3.656   11.213   13.136
 mp_waitany                       14994 11.5   10.137   12.929   10.137   12.929
 prepare_preconditioner               5  5.0    0.000    0.000   11.547   11.601
 make_preconditioner                  5  6.0    0.000    0.000   11.547   11.601
 x_to_yz                            486 13.4    3.326    3.390   10.759   11.001
 transfer_rs2pw_500                  91  9.0    3.284    4.057    8.396   10.819
 transfer_pw2rs_500                  88 12.0    3.650    4.363    8.953    9.697
 make_full_inverse_cholesky           5  7.0    0.000    0.000    7.386    7.462
 apply_preconditioner_dbcsr          49 10.0    0.000    0.000    6.906    7.206
 apply_single                        49 11.0    0.000    0.000    6.906    7.206
 qs_ot_get_derivative                44  9.0    0.000    0.001    6.647    7.008
 qs_ot_get_p                         49  7.8    0.000    0.000    6.356    6.872
 ot_diis_step                        44  9.0    0.003    0.003    6.699    6.699
 mp_alltoall_d11v                   925 11.6    4.119    6.694    4.119    6.694
 multiply_cannon_metrocomm1       11220 13.0    0.043    0.046    4.877    6.169
 multiply_cannon_metrocomm3       11220 13.0    0.033    0.038    1.413    6.162
 rs_gather_matrices                  88 10.0    0.189    0.225    3.257    5.928
 -------------------------------------------------------------------------------

 The number of warnings for this run is : 1
 
 -------------------------------------------------------------------------------
  **** **** ******  **  PROGRAM ENDED AT                 2024-09-13 03:26:59.754
 ***** ** ***  *** **   PROGRAM RAN ON                                  nid04412
 **    ****   ******    PROGRAM RAN BY                                  bsertcan
 ***** **    ** ** **   PROGRAM PROCESS ID                                 20439
  **** **  *******  **  PROGRAM STOPPED IN /scratch/snx3000/bsertcan/MFU_sp/rsca
                                           n/cl/xe/rep47
