 DBCSR| CPU Multiplication driver                                           XSMM (U)
 DBCSR| Multrec recursion limit                                              512 (U)
 DBCSR| Multiplication stack size                                           1000 (D)
 DBCSR| Maximum elements for images                                    UNLIMITED (U)
 DBCSR| Multiplicative factor virtual images                                   1 (U)
 DBCSR| Use multiplication densification                                       T (D)
 DBCSR| Multiplication size stacks                                             3 (U)
 DBCSR| Use memory pool for CPU allocation                                     F (U)
 DBCSR| Number of 3D layers                                               SINGLE (U)
 DBCSR| Use MPI memory allocation                                              F (U)
 DBCSR| Use RMA algorithm                                                      F (U)
 DBCSR| Use Communication thread                                               T (U)
 DBCSR| Communication thread load                                             87 (D)
 DBCSR| MPI: My process id                                                     0
 DBCSR| MPI: Number of processes                                             144
 DBCSR| OMP: Current number of threads                                         1
 DBCSR| OMP: Max number of threads                                             1
 DBCSR| Split modifier for TAS multiplication algorithm                  1.0E+00 (U)


  **** **** ******  **  PROGRAM STARTED AT               2024-09-13 03:20:17.088
 ***** ** ***  *** **   PROGRAM STARTED ON                              nid04971
 **    ****   ******    PROGRAM STARTED BY                              bsertcan
 ***** **    ** ** **   PROGRAM PROCESS ID                                  7606
  **** **  *******  **  PROGRAM STARTED IN /scratch/snx3000/bsertcan/MFU_sp/rsca
                                           n/cl/xe/rep34

 CP2K| version string:                 CP2K version 2024.2 (Development Version)
 CP2K| source code revision number:                                  git:42d1e6b
 CP2K| cp2kflags: omp libint fftw3 libxc parallel scalapack xsmm                
 CP2K| is freely available from                            https://www.cp2k.org/
 CP2K| Program compiled at                         Tue Sep  3 22:59:39 CEST 2024
 CP2K| Program compiled on                                              daint106
 CP2K| Program compiled for                                                local
 CP2K| Data directory path                             /users/bsertcan/cp2k/data
 CP2K| Input file name                                                 input.inp

 GLOBAL| Force Environment number                                              1
 GLOBAL| Basis set file name                                    BASIS_MOLOPT_UZH
 GLOBAL| Potential file name                                       POTENTIAL_UZH
 GLOBAL| MM Potential file name                                     MM_POTENTIAL
 GLOBAL| Coordinate file name                                         rep_34.xyz
 GLOBAL| Method name                                                        CP2K
 GLOBAL| Project name                                                 Replica_34
 GLOBAL| Run type                                                         ENERGY
 GLOBAL| FFT library                                                       FFTW3
 GLOBAL| Diagonalization library                                       ScaLAPACK
 GLOBAL| DGEMM library                                                      BLAS
 GLOBAL| Orthonormality check for eigenvectors                          DISABLED
 GLOBAL| Matrix multiplication library                                 ScaLAPACK
 GLOBAL| All-to-all communication in single precision                          F
 GLOBAL| FFTs using library dependent lengths                                  F
 GLOBAL| Grid backend                                                       AUTO
 GLOBAL| Global print level                                                  LOW
 GLOBAL| MPI I/O enabled                                                       T
 GLOBAL| Total number of message passing processes                           144
 GLOBAL| Number of threads for this process                                    1
 GLOBAL| This output is from process                                           0
 GLOBAL| Stack size for threads created by OpenMP (OMP_STACKSIZE)             5M
 GLOBAL| CPU model name                Intel(R) Xeon(R) CPU E5-2690 v3 @ 2.60GHz
 GLOBAL| CPUID                                                              1002

 MEMORY| system memory details [Kb]
 MEMORY|                        rank 0           min           max       average
 MEMORY| MemTotal             65740148      65740148      65740148      65740148
 MEMORY| MemFree              60796980      60796980      60982788      60933386
 MEMORY| Buffers                  8576          6860          8576          7813
 MEMORY| Cached                1877380       1794760       1877380       1826817
 MEMORY| Slab                   220408        213984        220408        215664
 MEMORY| SReclaimable            49328         47276         49328         47919
 MEMORY| MemLikelyFree        62732264      62732264      62833084      62815937


 *******************************************************************************
 *******************************************************************************
 **                                                                           **
 **     #####                         ##              ##                      **
 **    ##   ##            ##          ##              ##                      **
 **   ##     ##                       ##            ######                    **
 **   ##     ##  ##   ##  ##   #####  ##  ##   ####   ##    #####    #####    **
 **   ##     ##  ##   ##  ##  ##      ## ##   ##      ##   ##   ##  ##   ##   **
 **   ##  ## ##  ##   ##  ##  ##      ####     ###    ##   ######   ######    **
 **    ##  ###   ##   ##  ##  ##      ## ##      ##   ##   ##       ##        **
 **     #######   #####   ##   #####  ##  ##  ####    ##    #####   ##        **
 **           ##                                                    ##        **
 **                                                                           **
 **                                                ... make the atoms dance   **
 **                                                                           **
 **            Copyright (C) by CP2K developers group (2000-2024)             **
 **                      J. Chem. Phys. 152, 194103 (2020)                    **
 **                                                                           **
 *******************************************************************************


 TOTAL NUMBERS AND MAXIMUM NUMBERS

  Total number of            - Atomic kinds:                                   6
                             - Atoms:                                        409
                             - Shell sets:                                   409
                             - Shells:                                      3617
                             - Primitive Cartesian functions:               2053
                             - Cartesian basis functions:                  13634
                             - Spherical basis functions:                  11621

  Maximum angular momentum of- Orbital basis functions:                        3
                             - Local part of the GTH pseudopotential:          2
                             - Non-local part of the GTH pseudopotential:      4

  AUX_FIT ADMM-Basis: 
  Total number of            - Shell sets:                                  2799
                             - Shells:                                      2799
                             - Primitive Cartesian functions:               3609
                             - Cartesian basis functions:                   7546
                             - Spherical basis functions:                   6985
                               Maximum angular momentum                        3


 SCF PARAMETERS         Density guess:                                   RESTART
                        --------------------------------------------------------
                        max_scf:                                              10
                        max_scf_history:                                       0
                        max_diis:                                              4
                        --------------------------------------------------------
                        eps_scf:                                        1.00E-06
                        eps_scf_history:                                0.00E+00
                        eps_diis:                                       1.00E-01
                        eps_eigval:                                     1.00E-05
                        --------------------------------------------------------
                        level_shift [a.u.]:                             0.000000
                        --------------------------------------------------------
                        Outer loop SCF in use 
                        No variables optimised in outer loop
                        eps_scf                                         1.00E-06
                        max_scf                                               10
                        No outer loop optimization
                        step_size                                       5.00E-01

 Number of electrons:                                                       2056
 Number of occupied orbitals:                                               1028
 Number of molecular orbitals:                                              1028

 Number of orbital functions:                                              11621
 Number of independent orbital functions:                                  11621

 Extrapolation method: initial_guess

 *** WARNING in qs_initial_guess.F:306 :: User requested to restart the   ***
 *** wavefunction from the file named: Replica_34-RESTART.wfn. This file  ***
 *** does not exist. Please check the existence of the file or change     ***
 *** properly the value of the keyword WFN_RESTART_FILE_NAME. Calculation ***
 *** continues using ATOMIC GUESS.                                        ***



 SCF WAVEFUNCTION OPTIMIZATION

  ----------------------------------- OT ---------------------------------------
  Minimizer      : DIIS                : direct inversion
                                         in the iterative subspace
                                         using   7 DIIS vectors
                                         safer DIIS on
  Preconditioner : FULL_SINGLE_INVERSE : inversion of 
                                         H + eS - 2*(Sc)(c^T*H*c+const)(Sc)^T
  Precond_solver : DEFAULT
  stepsize       :    0.08000000                  energy_gap     :    0.08000000
  eps_taylor     :   0.10000E-15                  max_taylor     :             4
  ----------------------------------- OT ---------------------------------------

  Step     Update method      Time    Convergence         Total energy    Change
  ------------------------------------------------------------------------------
     1 OT DIIS     0.80E-01    6.6     0.01138503     -5011.9837142771 -5.01E+03
     2 OT DIIS     0.80E-01    5.3     0.00705694     -5086.7127926617 -7.47E+01
     3 OT DIIS     0.80E-01    5.3     0.00679057     -5122.1179117125 -3.54E+01
     4 OT DIIS     0.80E-01    5.3     0.00617714     -5139.8785372688 -1.78E+01
     5 OT DIIS     0.80E-01    5.3     0.00343736     -5177.4064443111 -3.75E+01
     6 OT DIIS     0.80E-01    5.3     0.00257713     -5189.6546739848 -1.22E+01
     7 OT DIIS     0.80E-01    5.3     0.00194354     -5197.3042683046 -7.65E+00
     8 OT DIIS     0.80E-01    5.3     0.00130676     -5204.0959777635 -6.79E+00
     9 OT DIIS     0.80E-01    5.3     0.00104382     -5206.8962185894 -2.80E+00
    10 OT DIIS     0.80E-01    5.3     0.00074881     -5209.5452183162 -2.65E+00

  Leaving inner SCF loop after reaching    10 steps.


  Electronic density on regular grids:      -2055.9999999683        0.0000000317
  Core density on regular grids:             2055.9999998530       -0.0000001470
  Total charge density on r-space grids:       -0.0000001152
  Total charge density g-space grids:          -0.0000001152

  Overlap energy of the core charge distribution:               0.00004692156160
  Self energy of the core charge distribution:              -9860.83173999830615
  Core Hamiltonian energy:                                   2923.78578785126501
  Hartree energy:                                            2791.20315877218263
  Exchange-correlation energy:                              -1063.70247186290817

  Total energy:                                             -5209.54521831620605

  outer SCF iter =    1 RMS gradient =   0.75E-03 energy =      -5209.5452183162

  ----------------------------------- OT ---------------------------------------
  Minimizer      : DIIS                : direct inversion
                                         in the iterative subspace
                                         using   7 DIIS vectors
                                         safer DIIS on
  Preconditioner : FULL_SINGLE_INVERSE : inversion of 
                                         H + eS - 2*(Sc)(c^T*H*c+const)(Sc)^T
  Precond_solver : DEFAULT
  stepsize       :    0.08000000                  energy_gap     :    0.08000000
  eps_taylor     :   0.10000E-15                  max_taylor     :             4
  ----------------------------------- OT ---------------------------------------

  Step     Update method      Time    Convergence         Total energy    Change
  ------------------------------------------------------------------------------
     1 OT DIIS     0.80E-01   13.6     0.00119780     -5210.7567746495 -1.21E+00
     2 OT DIIS     0.80E-01    5.3     0.00102821     -5212.0224632214 -1.27E+00
     3 OT DIIS     0.80E-01    5.3     0.00060281     -5213.8522880154 -1.83E+00
     4 OT DIIS     0.80E-01    5.4     0.00048359     -5214.2455623292 -3.93E-01
     5 OT DIIS     0.80E-01    5.3     0.00037431     -5214.3856822916 -1.40E-01
     6 OT DIIS     0.80E-01    5.3     0.00023606     -5214.4876450996 -1.02E-01
     7 OT DIIS     0.80E-01    5.3     0.00016547     -5214.5250991214 -3.75E-02
     8 OT DIIS     0.80E-01    5.6     0.00012385     -5214.5420571499 -1.70E-02
     9 OT DIIS     0.80E-01    5.3     0.00011453     -5214.5610942744 -1.90E-02
    10 OT DIIS     0.80E-01    5.5     0.00010081     -5214.5727642921 -1.17E-02

  Leaving inner SCF loop after reaching    10 steps.


  Electronic density on regular grids:      -2055.9999999683        0.0000000317
  Core density on regular grids:             2055.9999998530       -0.0000001470
  Total charge density on r-space grids:       -0.0000001153
  Total charge density g-space grids:          -0.0000001153

  Overlap energy of the core charge distribution:               0.00004692156160
  Self energy of the core charge distribution:              -9860.83173999830615
  Core Hamiltonian energy:                                   2919.00960826988285
  Hartree energy:                                            2791.66303507764223
  Exchange-correlation energy:                              -1064.41371456288016

  Total energy:                                             -5214.57276429210015

  outer SCF iter =    2 RMS gradient =   0.10E-03 energy =      -5214.5727642921

  ----------------------------------- OT ---------------------------------------
  Minimizer      : DIIS                : direct inversion
                                         in the iterative subspace
                                         using   7 DIIS vectors
                                         safer DIIS on
  Preconditioner : FULL_SINGLE_INVERSE : inversion of 
                                         H + eS - 2*(Sc)(c^T*H*c+const)(Sc)^T
  Precond_solver : DEFAULT
  stepsize       :    0.08000000                  energy_gap     :    0.08000000
  eps_taylor     :   0.10000E-15                  max_taylor     :             4
  ----------------------------------- OT ---------------------------------------

  Step     Update method      Time    Convergence         Total energy    Change
  ------------------------------------------------------------------------------
     1 OT DIIS     0.80E-01   13.5     0.00011816     -5214.5785124033 -5.75E-03
     2 OT SD       0.80E-01    5.2     0.00013771     -5214.5927603530 -1.42E-02
     3 OT SD       0.80E-01    5.3     0.00016604     -5214.6124976125 -1.97E-02
     4 OT SD       0.80E-01    5.3     0.00019657     -5214.6402788802 -2.78E-02
     5 OT SD       0.80E-01    5.3     0.00022866     -5214.6747340084 -3.45E-02
     6 OT SD       0.80E-01    5.3     0.00029228     -5214.7058587750 -3.11E-02
     7 OT DIIS     0.80E-01    5.3     0.00043638     -5214.7147773919 -8.92E-03
     8 OT DIIS     0.80E-01    5.3     0.00021797     -5214.7150463754 -2.69E-04
     9 OT DIIS     0.80E-01    5.3     0.00010423     -5214.7673180001 -5.23E-02
    10 OT DIIS     0.80E-01    5.3     0.00005930     -5214.7744132645 -7.10E-03

  Leaving inner SCF loop after reaching    10 steps.


  Electronic density on regular grids:      -2055.9999999683        0.0000000317
  Core density on regular grids:             2055.9999998530       -0.0000001470
  Total charge density on r-space grids:       -0.0000001153
  Total charge density g-space grids:          -0.0000001153

  Overlap energy of the core charge distribution:               0.00004692156160
  Self energy of the core charge distribution:              -9860.83173999830615
  Core Hamiltonian energy:                                   2918.68925665590768
  Hartree energy:                                            2791.78647605576134
  Exchange-correlation energy:                              -1064.41845289942148

  Total energy:                                             -5214.77441326449843

  outer SCF iter =    3 RMS gradient =   0.59E-04 energy =      -5214.7744132645

  ----------------------------------- OT ---------------------------------------
  Minimizer      : DIIS                : direct inversion
                                         in the iterative subspace
                                         using   7 DIIS vectors
                                         safer DIIS on
  Preconditioner : FULL_SINGLE_INVERSE : inversion of 
                                         H + eS - 2*(Sc)(c^T*H*c+const)(Sc)^T
  Precond_solver : DEFAULT
  stepsize       :    0.08000000                  energy_gap     :    0.08000000
  eps_taylor     :   0.10000E-15                  max_taylor     :             4
  ----------------------------------- OT ---------------------------------------

  Step     Update method      Time    Convergence         Total energy    Change
  ------------------------------------------------------------------------------
     1 OT DIIS     0.80E-01   13.1     0.00001658     -5214.7767174519 -2.30E-03
     2 OT DIIS     0.80E-01    5.2     0.00001598     -5214.7768441319 -1.27E-04
     3 OT DIIS     0.80E-01    5.2     0.00000862     -5214.7769173665 -7.32E-05
     4 OT DIIS     0.80E-01    5.2     0.00000503     -5214.7770172007 -9.98E-05
     5 OT DIIS     0.80E-01    5.2     0.00000181     -5214.7770397430 -2.25E-05
     6 OT DIIS     0.80E-01    5.2     0.00000108     -5214.7770421960 -2.45E-06
     7 OT DIIS     0.80E-01    5.2     0.00000057     -5214.7770429361 -7.40E-07

  *** SCF run converged in     7 steps ***


  Electronic density on regular grids:      -2055.9999999683        0.0000000317
  Core density on regular grids:             2055.9999998530       -0.0000001470
  Total charge density on r-space grids:       -0.0000001153
  Total charge density g-space grids:          -0.0000001153

  Overlap energy of the core charge distribution:               0.00004692156160
  Self energy of the core charge distribution:              -9860.83173999830615
  Core Hamiltonian energy:                                   2918.65296410435803
  Hartree energy:                                            2791.81435472456724
  Exchange-correlation energy:                              -1064.41266868828643

  Total energy:                                             -5214.77704293610623

  outer SCF iter =    4 RMS gradient =   0.57E-06 energy =      -5214.7770429361
  outer SCF loop converged in   4 iterations or   37 steps


 ENERGY| Total FORCE_EVAL ( QS ) energy [a.u.]:            -5214.777042936106227

 -------------------------------------------------------------------------------
 -                                                                             -
 -                                DBCSR STATISTICS                             -
 -                                                                             -
 -------------------------------------------------------------------------------
 COUNTER                                    TOTAL       BLAS       SMM       ACC
 flops    14 x     4 x     4               172032       0.0%    100.0%      0.0%     
 flops     4 x     4 x   976               249856       0.0%    100.0%      0.0%     
 flops    41 x     4 x     4               419840       0.0%    100.0%      0.0%     
 flops     4 x     4 x   974               498688       0.0%    100.0%      0.0%     
 flops     4 x     4 x   962               615680       0.0%    100.0%      0.0%     
 flops    29 x     4 x     4              2383104       0.0%    100.0%      0.0%     
 flops    14 x    32 x     4             22020096       0.0%    100.0%      0.0%     
 flops    14 x     4 x    32             22020096       0.0%    100.0%      0.0%     
 flops    32 x     4 x   976             31981568       0.0%    100.0%      0.0%     
 flops     4 x    32 x   976             31981568       0.0%    100.0%      0.0%     
 flops    41 x    32 x     4             53739520       0.0%    100.0%      0.0%     
 flops    41 x     4 x    32             53739520       0.0%    100.0%      0.0%     
 flops    32 x     4 x   974             63832064       0.0%    100.0%      0.0%     
 flops     4 x    32 x   974             63832064       0.0%    100.0%      0.0%     
 flops    32 x     4 x   962             78807040       0.0%    100.0%      0.0%     
 flops     4 x    32 x   962             78807040       0.0%    100.0%      0.0%     
 flops    14 x     4 x    14            138485760       0.0%    100.0%      0.0%     
 flops    68 x    68 x    68            178597376       0.0%    100.0%      0.0%     
 flops    29 x    32 x     4            305037312       0.0%    100.0%      0.0%     
 flops    29 x     4 x    32            305037312       0.0%    100.0%      0.0%     
 flops    41 x    14 x    68            487119360       0.0%    100.0%      0.0%     
 flops    64 x    68 x    68            504274944       0.0%    100.0%      0.0%     
 flops    68 x    64 x    68            504274944       0.0%    100.0%      0.0%     
 flops    68 x    68 x    64            504274944       0.0%    100.0%      0.0%     
 flops    14 x    14 x    68            635905536       0.0%    100.0%      0.0%     
 flops    41 x     4 x    14            648904704       0.0%    100.0%      0.0%     
 flops    14 x     4 x    41            648904704       0.0%    100.0%      0.0%     
 flops    41 x    14 x    64           1375395840       0.0%    100.0%      0.0%     
 flops    64 x    64 x    68           1423835136       0.0%    100.0%      0.0%     
 flops    64 x    68 x    64           1423835136       0.0%    100.0%      0.0%     
 flops    68 x    64 x    64           1423835136       0.0%    100.0%      0.0%     
 flops   963 x    68 x    68           1576330848       0.0%    100.0%      0.0%     
 flops    14 x    14 x    64           1795497984       0.0%    100.0%      0.0%     
 flops    41 x     4 x    41           1969647872       0.0%    100.0%      0.0%     
 flops    68 x    68 x    96           2017099776       0.0%    100.0%      0.0%     
 flops    68 x    96 x    68           2017099776       0.0%    100.0%      0.0%     
 flops    96 x    68 x    68           2017099776       0.0%    100.0%      0.0%     
 flops    14 x     4 x    29           2131155712       0.0%    100.0%      0.0%     
 flops    29 x     4 x    14           2131155712       0.0%    100.0%      0.0%     
 flops    68 x    68 x   976           2599501824       0.0%    100.0%      0.0%     
 flops   976 x    68 x    68           3195220992       0.0%    100.0%      0.0%     
 flops    64 x    64 x    64           4020240384       0.0%    100.0%      0.0%     
 flops   963 x    64 x    68           4450816512       0.0%    100.0%      0.0%     
 flops   963 x    68 x    64           4450816512       0.0%    100.0%      0.0%     
 flops    14 x    41 x    68           4668851712       0.0%    100.0%      0.0%     
 flops    68 x    68 x   974           5188349952       0.0%    100.0%      0.0%     
 flops    41 x    14 x    96           5501583360       0.0%    100.0%      0.0%     
 flops    64 x    68 x    96           5695340544       0.0%    100.0%      0.0%     
 flops    64 x    96 x    68           5695340544       0.0%    100.0%      0.0%     
 flops    68 x    64 x    96           5695340544       0.0%    100.0%      0.0%     
 flops    68 x    96 x    64           5695340544       0.0%    100.0%      0.0%     
 flops    96 x    64 x    68           5695340544       0.0%    100.0%      0.0%     
 flops    96 x    68 x    64           5695340544       0.0%    100.0%      0.0%     
 flops    14 x    32 x    32           5813305344       0.0%    100.0%      0.0%     
 flops   974 x    68 x    68           6377346816       0.0%    100.0%      0.0%     
 flops    68 x    68 x   962           6405534720       0.0%    100.0%      0.0%     
 flops    14 x    14 x    96           7181991936       0.0%    100.0%      0.0%     
 flops    64 x    68 x   976           7339769856       0.0%    100.0%      0.0%     
 flops    68 x    64 x   976           7339769856       0.0%    100.0%      0.0%     
 flops    41 x    41 x    68           7838785408       0.0%    100.0%      0.0%     
 flops   962 x    68 x    68           7873469760       0.0%    100.0%      0.0%     
 flops    14 x    29 x    68           7927250688       0.0%    100.0%      0.0%     
 flops    32 x    32 x   976           8443133952       0.0%    100.0%      0.0%     
 flops   976 x    64 x    68           9021800448       0.0%    100.0%      0.0%     
 flops   976 x    68 x    64           9021800448       0.0%    100.0%      0.0%     
 flops    29 x    14 x    68          10440241280       0.0%    100.0%      0.0%     
 flops    41 x     4 x    29          10480245504       0.0%    100.0%      0.0%     
 flops    29 x     4 x    41          10480245504       0.0%    100.0%      0.0%     
 flops   963 x    68 x   976          10481630976       0.0%    100.0%      0.0%     
 flops   963 x    64 x    64          12567011328       0.0%    100.0%      0.0%     
 flops    14 x    41 x    64          13182640128       0.0%    100.0%      0.0%     
 flops    41 x    32 x    32          14187233280       0.0%    100.0%      0.0%     
 flops    64 x    68 x   974          14649458688       0.0%    100.0%      0.0%     
 flops    68 x    64 x   974          14649458688       0.0%    100.0%      0.0%     
 flops    64 x    64 x    96          16080961536       0.0%    100.0%      0.0%     
 flops    64 x    96 x    64          16080961536       0.0%    100.0%      0.0%     
 flops    96 x    64 x    64          16080961536       0.0%    100.0%      0.0%     
 flops    32 x    32 x   974          16851664896       0.0%    100.0%      0.0%     
 flops   963 x    68 x    96          17803266048       0.0%    100.0%      0.0%     
 flops   963 x    96 x    68          17803266048       0.0%    100.0%      0.0%     
 flops   974 x    64 x    68          18006626304       0.0%    100.0%      0.0%     
 flops   974 x    68 x    64          18006626304       0.0%    100.0%      0.0%     
 flops    64 x    68 x   962          18086215680       0.0%    100.0%      0.0%     
 flops    68 x    64 x   962          18086215680       0.0%    100.0%      0.0%     
 flops    64 x    64 x   976          20724056064       0.0%    100.0%      0.0%     
 flops    32 x    32 x   962          20805058560       0.0%    100.0%      0.0%     
 flops   963 x    68 x   974          20920304448       0.0%    100.0%      0.0%     
 flops   976 x    68 x   976          21246255104       0.0%    100.0%      0.0%     
 flops    41 x    41 x    64          22133041152       0.0%    100.0%      0.0%     
 flops   962 x    64 x    68          22230973440       0.0%    100.0%      0.0%     
 flops   962 x    68 x    64          22230973440       0.0%    100.0%      0.0%     
 flops    14 x    29 x    64          22382825472       0.0%    100.0%      0.0%     
 flops    96 x    96 x    68          22781362176       0.0%    100.0%      0.0%     
 flops    68 x    96 x    96          22781362176       0.0%    100.0%      0.0%     
 flops    96 x    68 x    96          22781362176       0.0%    100.0%      0.0%     
 flops   976 x    64 x    64          25473318912       0.0%    100.0%      0.0%     
 flops   963 x    68 x   962          25828199280       0.0%    100.0%      0.0%     
 flops    68 x    96 x   976          29359079424       0.0%    100.0%      0.0%     
 flops    96 x    68 x   976          29359079424       0.0%    100.0%      0.0%     
 flops    29 x    14 x    64          29478328320       0.0%    100.0%      0.0%     
 flops   963 x    64 x   976          29595193344       0.0%    100.0%      0.0%     
 flops    29 x    41 x    68          34846565184       0.0%    100.0%      0.0%     
 flops    14 x    32 x    14          35452354560       0.0%    100.0%      0.0%     
 flops   976 x    68 x    96          36087201792       0.0%    100.0%      0.0%     
 flops   976 x    96 x    68          36087201792       0.0%    100.0%      0.0%     
 flops    29 x     4 x    29          37513040480       0.0%    100.0%      0.0%     
 flops    64 x    64 x   974          41363177472       0.0%    100.0%      0.0%     
 flops   976 x    68 x   974          42405435392       0.0%    100.0%      0.0%     
 flops   974 x    68 x   976          42405435392       0.0%    100.0%      0.0%     
 flops    41 x    29 x    68          47048102208       0.0%    100.0%      0.0%     
 flops   963 x    64 x    96          50268045312       0.0%    100.0%      0.0%     
 flops   963 x    96 x    64          50268045312       0.0%    100.0%      0.0%     
 flops   974 x    64 x    64          50842238976       0.0%    100.0%      0.0%     
 flops    64 x    64 x   962          51066961920       0.0%    100.0%      0.0%     
 flops   976 x    68 x   962          52353733120       0.0%    100.0%      0.0%     
 flops   962 x    68 x   976          52353733120       0.0%    100.0%      0.0%     
 flops    14 x    41 x    96          52730560512       0.0%    100.0%      0.0%     
 flops    68 x    96 x   974          58597834752       0.0%    100.0%      0.0%     
 flops    96 x    68 x   974          58597834752       0.0%    100.0%      0.0%     
 flops   963 x    64 x   974          59069094912       0.0%    100.0%      0.0%     
 flops   976 x    64 x   976          59989426176       0.0%    100.0%      0.0%     
 flops   962 x    64 x    64          62769807360       0.0%    100.0%      0.0%     
 flops    96 x    96 x    64          64323846144       0.0%    100.0%      0.0%     
 flops    64 x    96 x    96          64323846144       0.0%    100.0%      0.0%     
 flops    96 x    64 x    96          64323846144       0.0%    100.0%      0.0%     
 flops   974 x    96 x    68          72026505216       0.0%    100.0%      0.0%     
 flops   974 x    68 x    96          72026505216       0.0%    100.0%      0.0%     
 flops    68 x    96 x   962          72344862720       0.0%    100.0%      0.0%     
 flops    96 x    68 x   962          72344862720       0.0%    100.0%      0.0%     
 flops   963 x    64 x   962          72926680320       0.0%    100.0%      0.0%     
 flops    29 x    32 x    32          80529850368       0.0%    100.0%      0.0%     
 flops    64 x    96 x   976          82896224256       0.0%    100.0%      0.0%     
 flops    96 x    64 x   976          82896224256       0.0%    100.0%      0.0%     
 flops   974 x    68 x   974          84637078016       0.0%    100.0%      0.0%     
 flops    41 x    41 x    96          88532164608       0.0%    100.0%      0.0%     
 flops   962 x    68 x    96          88923893760       0.0%    100.0%      0.0%     
 flops   962 x    96 x    68          88923893760       0.0%    100.0%      0.0%     
 flops    14 x    29 x    96          89531301888       0.0%    100.0%      0.0%     
 flops    29 x    41 x    64          98390301696       0.0%    100.0%      0.0%     
 flops   976 x    64 x    96         101893275648       0.0%    100.0%      0.0%     
 flops   976 x    96 x    64         101893275648       0.0%    100.0%      0.0%     
 flops   962 x    68 x   974         104492901760       0.0%    100.0%      0.0%     
 flops   974 x    68 x   962         104492901760       0.0%    100.0%      0.0%     
 flops    29 x    14 x    96         117913313280       0.0%    100.0%      0.0%     
 flops   963 x    96 x   976         118380773376       0.0%    100.0%      0.0%     
 flops   976 x    64 x   974         119732994048       0.0%    100.0%      0.0%     
 flops   974 x    64 x   976         119732994048       0.0%    100.0%      0.0%     
 flops   962 x    68 x   962         129006893600       0.0%    100.0%      0.0%     
 flops    41 x    29 x    64         132841700352       0.0%    100.0%      0.0%     
 flops   976 x    64 x   962         147822305280       0.0%    100.0%      0.0%     
 flops   962 x    64 x   976         147822305280       0.0%    100.0%      0.0%     
 flops    29 x    29 x    68         156045235568       0.0%    100.0%      0.0%     
 flops    64 x    96 x   974         165452709888       0.0%    100.0%      0.0%     
 flops    96 x    64 x   974         165452709888       0.0%    100.0%      0.0%     
 flops    41 x    32 x    14         166119604224       0.0%    100.0%      0.0%     
 flops    14 x    32 x    41         166119604224       0.0%    100.0%      0.0%     
 flops   963 x    96 x    96         201072181248       0.0%    100.0%      0.0%     
 flops   974 x    96 x    64         203368955904       0.0%    100.0%      0.0%     
 flops   974 x    64 x    96         203368955904       0.0%    100.0%      0.0%     
 flops    64 x    96 x   962         204267847680       0.0%    100.0%      0.0%     
 flops    96 x    64 x   962         204267847680       0.0%    100.0%      0.0%     
 flops   963 x    96 x   974         236276379648       0.0%    100.0%      0.0%     
 flops   974 x    64 x   974         238975279104       0.0%    100.0%      0.0%     
 flops   976 x    96 x   976         239957704704       0.0%    100.0%      0.0%     
 flops   962 x    64 x    96         251079229440       0.0%    100.0%      0.0%     
 flops   962 x    96 x    64         251079229440       0.0%    100.0%      0.0%     
 flops    96 x    96 x    96         257295384576       0.0%    100.0%      0.0%     
 flops   963 x    96 x   962         291706721280       0.0%    100.0%      0.0%     
 flops   962 x    64 x   974         295038781440       0.0%    100.0%      0.0%     
 flops   974 x    64 x   962         295038781440       0.0%    100.0%      0.0%     
 flops    96 x    96 x   976         331584897024       0.0%    100.0%      0.0%     
 flops   962 x    64 x   962         364254758400       0.0%    100.0%      0.0%     
 flops    29 x    41 x    96         393561206784       0.0%    100.0%      0.0%     
 flops   976 x    96 x    96         407573102592       0.0%    100.0%      0.0%     
 flops    29 x    29 x    64         440598312192       0.0%    100.0%      0.0%     
 flops   974 x    96 x   976         478931976192       0.0%    100.0%      0.0%     
 flops   976 x    96 x   974         478931976192       0.0%    100.0%      0.0%     
 flops    41 x    32 x    41         504229855232       0.0%    100.0%      0.0%     
 flops    41 x    29 x    96         531366801408       0.0%    100.0%      0.0%     
 flops    14 x    32 x    29         545575862272       0.0%    100.0%      0.0%     
 flops    29 x    32 x    14         545575862272       0.0%    100.0%      0.0%     
 flops   976 x    96 x   962         591289221120       0.0%    100.0%      0.0%     
 flops   962 x    96 x   976         591289221120       0.0%    100.0%      0.0%     
 flops    96 x    96 x   974         661810839552       0.0%    100.0%      0.0%     
 flops   974 x    96 x    96         813475823616       0.0%    100.0%      0.0%     
 flops    96 x    96 x   962         817071390720       0.0%    100.0%      0.0%     
 flops   974 x    96 x   974         955901116416       0.0%    100.0%      0.0%     
 flops   962 x    96 x    96        1004316917760       0.0%    100.0%      0.0%     
 flops   974 x    96 x   962        1180155125760       0.0%    100.0%      0.0%     
 flops   962 x    96 x   974        1180155125760       0.0%    100.0%      0.0%     
 flops   962 x    96 x   962        1457019033600       0.0%    100.0%      0.0%     
 flops    29 x    29 x    96        1762393248768       0.0%    100.0%      0.0%     
 flops    41 x    32 x    29        2682942849024       0.0%    100.0%      0.0%     
 flops    29 x    32 x    41        2682942849024       0.0%    100.0%      0.0%     
 flops    29 x    32 x    29        9603338362880       0.0%    100.0%      0.0%     
 flops inhomo. stacks               1257628040320     100.0%      0.0%      0.0%
 flops total                        41.133555E+12       3.1%     96.9%      0.0%
 flops max/rank                    328.760464E+09       3.1%     96.9%      0.0%
 matmuls inhomo. stacks                     28884     100.0%      0.0%      0.0%
 matmuls total                          348005100       0.0%    100.0%      0.0%
 number of processed stacks               3407132       0.8%     99.2%      0.0%
 average stack size                                     1.1     103.0       0.0
 marketing flops                    57.484241E+12
 -------------------------------------------------------------------------------
 # multiplications                            796
 max memory usage/rank             599.891968E+06
 # max total images/rank                        1
 # max 3D layers                                1
 # MPI messages exchanged                 2521728
 MPI messages size (bytes):
  total size                         2.018269E+12
  min size                           0.000000E+00
  max size                           7.620608E+06
  average size                     800.351375E+03
 MPI breakdown and total messages size (bytes):
             size <=      128               18480                        0
       128 < size <=     8192                   0                        0
      8192 < size <=    32768               74679               2441319936
     32768 < size <=   131072             1112265              67224967040
    131072 < size <=  4194304             1105632             733794936512
   4194304 < size <= 16777216              210672            1214811534200
  16777216 < size                               0                        0
 -------------------------------------------------------------------------------
 -                                                                             -
 -                      DBCSR MESSAGE PASSING PERFORMANCE                      -
 -                                                                             -
 -------------------------------------------------------------------------------
 ROUTINE             CALLS      AVE VOLUME [Bytes]
 MP_Bcast              196                     12.
 MP_Allreduce         4601                     28.
 MP_Alltoall          2914                 157626.
 MP_ISend            38192                 378262.
 MP_IRecv            38192                 375891.
 -------------------------------------------------------------------------------

 -------------------------------------------------------------------------------
 -                                                                             -
 -                                DBM STATISTICS                               -
 -                                                                             -
 -------------------------------------------------------------------------------
    M  x    N  x    K                                          COUNT     PERCENT
 -------------------------------------------------------------------------------

 -------------------------------------------------------------------------------
 -                                                                             -
 -                                GRID STATISTICS                              -
 -                                                                             -
 -------------------------------------------------------------------------------
 LP    KERNEL             BACKEND                              COUNT     PERCENT
 6     collocate ortho    CPU                               10141288      21.49%
 8     collocate ortho    CPU                               10024552      21.24%
 6     integrate ortho    CPU                                9874412      20.92%
 8     integrate ortho    CPU                                9760748      20.68%
 5     collocate ortho    CPU                                1798920       3.81%
 7     collocate ortho    CPU                                1798920       3.81%
 5     integrate ortho    CPU                                1751580       3.71%
 7     integrate ortho    CPU                                1751580       3.71%
 4     collocate ortho    CPU                                 116736       0.25%
 4     integrate ortho    CPU                                 113664       0.24%
 0     collocate general  CPU                                  58896       0.12%
 -------------------------------------------------------------------------------

 MEMORY| Estimated peak process memory [MiB]                                 573

 -------------------------------------------------------------------------------
 -                                                                             -
 -                         MESSAGE PASSING PERFORMANCE                         -
 -                                                                             -
 -------------------------------------------------------------------------------

 ROUTINE             CALLS      AVE VOLUME [Bytes]
 MP_Group                4
 MP_Bcast             4084                3666537.
 MP_Allreduce         9433                   2838.
 MP_Sync                32
 MP_Alltoall          1288               16068694.
 MP_SendRecv         21736                  98624.
 MP_ISendRecv        21164                  98624.
 MP_Wait             35010
 MP_comm_split          28
 MP_ISend            12642                 575968.
 MP_IRecv            12642                 575993.
 -------------------------------------------------------------------------------


 -------------------------------------------------------------------------------
 -                                                                             -
 -                           R E F E R E N C E S                               -
 -                                                                             -
 -------------------------------------------------------------------------------
 
 CP2K version 2024.2 (Development Version), the CP2K developers group (2024).
 CP2K is freely available from https://www.cp2k.org/ .
 
 T. D. Kuehne, M. Iannuzzi, M. Del Ben, V. V. Rybkin, P. Seewald, F. Stein, T. 
 Laino, R. Z. Khaliullin, O. Schuett, F. Schiffmann, D. Golze, J. Wilhelm, S. 
 Chulkov, M. H. Bani-Hashemian, V. Weber, U. Borstnik, M. Taillefumier, A. S. 
 Jakobovits, A. Lazzaro, H. Pabst, T. Mueller, R. Schade, M. Guidon, S. 
 Andermatt, N. Holmberg, G. K. Schenter, A. Hehn, A. Bussy, F. Belleflamme, G. 
 Tabacchi, A. Gloess, M. Lass, I. Bethune, C. J. Mundy, C. Plessl, M. Watkins, 
 J. VandeVondele, M. Krack, J. Hutter.
 J. Chem. Phys. 152, 194103 (2020).
 CP2K: An electronic structure and molecular dynamics software package - 
 Quickstep: Efficient and accurate electronic structure calculations.
 https://doi.org/10.1063/5.0007045

 S. Lehtola, C. Steigemann, M. J. T. Oliveira, M. A. L. Marques.
 SoftwareX 7, 1-5 (2018).
 Recent developments in libxc - A comprehensive library of functionals for 
 density functional theory.
 https://doi.org/10.1016/j.softx.2017.11.002

 O. Schuett, P. Messmer, J. Hutter, J. VandeVondele.
 Electronic Structure Calculations on Graphics Processing Units, 173-190 (2016).
 GPU-Accelerated Sparse Matrix-Matrix Multiplication for Linear Scaling Density 
 Functional Theory.
 https://doi.org/10.1002/9781118670712.ch8

 A. Heinecke, G. Henry, M. Hutchinson, H. Pabst.
 Proceedings of Intl. Supercomputing Conference, 981-991 (2016).
 LIBXSMM: Accelerating Small Matrix Multiplications by Runtime Code Generation.
 https://doi.org/10.1109/SC.2016.83

 J. Hutter, M. Iannuzzi, F. Schiffmann, J. VandeVondele.
 WIREs Comput Mol Sci. 4, 15-25 (2014).
 CP2K: atomistic simulations of condensed matter systems.
 https://doi.org/10.1002/wcms.1159

 U. Borstnik, J. VandeVondele, V. Weber, J. Hutter.
 Parallel Comput. 40, 47-58 (2014).
 Sparse matrix multiplication: The distributed block-compressed sparse row 
 library.
 https://doi.org/10.1016/j.parco.2014.03.012

 M. A. L. Marques, M. J. T. Oliveira, T. Burnus.
 Comput. Phys. Commun. 183, 2272-2281 (2012).
 LIBXC: A library of exchange and correlation functionals for density functional 
 theory.
 https://doi.org/10.1016/j.cpc.2012.05.007

 J. VandeVondele, J. Hutter.
 J. Chem. Phys. 127, 114105 (2007).
 Gaussian basis sets for accurate calculations on molecular systems in gas and 
 condensed phases.
 https://doi.org/10.1063/1.2770708

 J. VandeVondele, M. Krack, F. Mohamed, M. Parrinello, T. Chassaing, J. Hutter.
 Comput. Phys. Commun. 167, 103-128 (2005).
 QUICKSTEP: Fast and accurate density functional calculations using a mixed 
 Gaussian and plane waves approach.
 https://doi.org/10.1016/j.cpc.2004.12.014

 M. Krack.
 Theor. Chem. Acc. 114, 145-152 (2005).
 Pseudopotentials for H to Kr optimized for gradient-corrected 
 exchange-correlation functionals.
 https://doi.org/10.1007/s00214-005-0655-y

 M. Frigo, S. G. Johnson.
 Proc. IEEE 93, 216-231 (2005).
 The design and implementation of FFTW3.
 https://doi.org/10.1109/JPROC.2004.840301

 J. VandeVondele, J. Hutter.
 J. Chem. Phys. 118, 4365-4369 (2003).
 An efficient orbital transformation method for electronic structure 
 calculations.
 https://doi.org/10.1063/1.1543154

 C. Hartwigsen, S. Goedecker, J. Hutter.
 Phys. Rev. B 58, 3641-3662 (1998).
 Relativistic separable dual-space Gaussian pseudopotentials from H to Rn.
 https://doi.org/10.1103/PhysRevB.58.3641

 G. Lippert, J. Hutter, M. Parrinello.
 Mol. Phys. 92, 477-487 (1997).
 A hybrid Gaussian and plane wave density functional scheme.
 https://doi.org/10.1080/002689797170220

 S. Goedecker, M. Teter, J. Hutter.
 Phys. Rev. B 54, 1703-1710 (1996).
 Separable dual-space Gaussian pseudopotentials.
 https://doi.org/10.1103/PhysRevB.54.1703


 -------------------------------------------------------------------------------
 -                                                                             -
 -                                T I M I N G                                  -
 -                                                                             -
 -------------------------------------------------------------------------------
 SUBROUTINE                       CALLS  ASD         SELF TIME        TOTAL TIME
                                MAXIMUM       AVERAGE  MAXIMUM  AVERAGE  MAXIMUM
 CP2K                                 1  1.0    0.016    0.039  212.047  212.048
 qs_energies                          1  2.0    0.008    0.011  210.342  210.345
 scf_env_do_scf                       1  3.0    0.000    0.000  207.592  207.593
 scf_env_do_scf_inner_loop           37  4.0    0.001    0.007  184.225  184.482
 qs_ks_update_qs_env                 41  5.0    0.000    0.000  116.617  116.803
 rebuild_ks_matrix                   37  6.0    0.000    0.000  116.532  116.720
 qs_ks_build_kohn_sham_matrix        37  7.0    0.005    0.006  116.532  116.720
 sum_up_and_integrate                37  8.0    0.002    0.003   59.775   59.781
 integrate_v_rspace                  74  9.0    0.003    0.004   59.536   59.544
 qs_rho_update_rho_low               38  5.0    0.000    0.000   58.896   58.953
 calculate_rho_elec                  76  6.0    0.171    0.177   58.896   58.953
 fft_wrap_pw1pw2                    973  9.9    0.021    0.029   46.975   48.593
 qs_vxc_create                       37  8.0    0.001    0.001   46.790   46.815
 xc_vxc_pw_create                    37  9.0    0.339    0.401   46.789   46.814
 fft_wrap_pw1pw2_500                523 11.3    1.991    2.039   44.460   46.142
 fft3d_ps                           973 11.9   17.159   17.797   36.130   37.785
 grid_integrate_task_list            74 10.0   35.480   37.099   35.480   37.099
 grid_collocate_task_list            76  7.0   31.255   33.111   31.255   33.111
 xc_rho_set_and_dset_create          37 10.0    0.350    0.411   31.061   31.548
 density_rs2pw                       76  7.0    0.006    0.006   26.805   29.216
 dbcsr_multiply_generic             796 10.0    0.044    0.048   24.371   24.843
 xc_pw_derive                       222 11.0    0.005    0.006   22.029   23.743
 init_scf_loop                        4  4.0    0.000    0.000   23.238   23.249
 qs_scf_new_mos                      37  5.0    0.000    0.000   22.783   23.155
 qs_scf_loop_do_ot                   37  6.0    0.000    0.000   22.782   23.155
 ot_scf_mini                         37  7.0    0.001    0.001   21.132   21.457
 potential_pw2rs                     74 10.0    0.014    0.016   21.268   21.309
 multiply_cannon                    796 11.0    0.063    0.074   19.463   20.594
 xc_functional_eval                  74 11.0    0.001    0.001   19.622   20.052
 libxc_lda_eval                      74 12.0   19.620   20.050   19.621   20.051
 multiply_cannon_loop               796 12.0    0.085    0.089   18.204   19.291
 xc_pw_divergence                    37 10.0    0.003    0.003   15.070   16.699
 mp_alltoall_z22v                   973 13.9   13.494   15.007   13.494   15.007
 transfer_rs2pw                     305  8.0    0.005    0.007   12.035   14.481
 multiply_cannon_multrec           9552 13.0   11.893   13.625   11.898   13.630
 transfer_pw2rs                     296 11.0    0.004    0.006   13.318   13.342
 mp_waitall_1                    111520 13.9    9.442   12.640    9.442   12.640
 ot_mini                             37  8.0    0.000    0.000   11.182   11.548
 yz_to_x                            414 12.6    2.586    3.026    9.629   11.401
 mp_waitany                       12642 11.5    8.750   11.137    8.750   11.137
 prepare_preconditioner               4  5.0    0.000    0.000    9.580    9.625
 make_preconditioner                  4  6.0    0.000    0.000    9.580    9.625
 x_to_yz                            409 13.4    2.805    2.869    9.249    9.468
 transfer_rs2pw_500                  77  9.0    2.769    3.297    7.288    9.315
 transfer_pw2rs_500                  74 12.0    3.080    3.672    7.533    8.245
 apply_preconditioner_dbcsr          41 10.0    0.000    0.000    5.771    6.052
 apply_single                        41 11.0    0.000    0.000    5.771    6.052
 make_full_inverse_cholesky           4  7.0    0.000    0.000    5.902    5.968
 multiply_cannon_metrocomm3        9552 13.0    0.027    0.032    1.263    5.968
 qs_ot_get_derivative                37  9.0    0.000    0.000    5.512    5.846
 qs_ot_get_p                         41  7.8    0.000    0.000    5.271    5.740
 ot_diis_step                        37  9.0    0.002    0.003    5.638    5.638
 mp_alltoall_d11v                   762 11.6    3.518    5.581    3.518    5.581
 multiply_cannon_metrocomm1        9552 13.0    0.036    0.039    3.960    5.330
 rs_gather_matrices                  74 10.0    0.159    0.190    2.784    4.944
 -------------------------------------------------------------------------------

 The number of warnings for this run is : 1
 
 -------------------------------------------------------------------------------
  **** **** ******  **  PROGRAM ENDED AT                 2024-09-13 03:23:49.713
 ***** ** ***  *** **   PROGRAM RAN ON                                  nid04971
 **    ****   ******    PROGRAM RAN BY                                  bsertcan
 ***** **    ** ** **   PROGRAM PROCESS ID                                  7606
  **** **  *******  **  PROGRAM STOPPED IN /scratch/snx3000/bsertcan/MFU_sp/rsca
                                           n/cl/xe/rep34
