     409
 i =     176, E =    -5136.7152592877
  N         2.9850856798        5.2001907367       16.0170880142
  C         1.6670417391        5.4686687069       16.2866611491
  N        13.8007657257        5.1892756688        5.1892767694
  C        12.4831438763        5.4596852678        5.4596861662
  N        19.6696528236       17.5689663537       16.0132607076
  C        20.9873877024       17.3019314978       16.2862760213
  N         8.8456976126       17.5752434467        5.2027991041
  C        10.1635820515       17.3032776759        5.4707253730
  N        19.6649903648        5.1918963676        6.7476203982
  C        20.9827526144        5.4648398573        6.4804844997
  N         8.8456964357        5.2027997120       17.5752445270
  C        10.1635769977        5.4707267501       17.3032759321
  N         2.9824541736       17.5729557720        6.7567737721
  C         1.6651779730       17.3022644200        6.4845607592
  N        13.8062913590       17.5710442056       17.5710442732
  C        12.4881207729       17.3021414797       17.3021410060
  N        15.9563436708        3.0353718920        5.1898577396
  C        16.2263471959        1.7179062490        5.4608229624
  N        15.9576299819       13.8594694785       16.0132002984
  C        16.2278896885       12.5417907142       16.2826602799
  N        15.9610472909       19.7220158043       17.5684334716
  C        16.2310230151       21.0396238496       17.2978532841
  N        15.9555192364        8.8993774840        6.7449911235
  C        16.2265935582       10.2172616207        6.4762744537
  N         6.6898900863       19.7267448001        5.2013174210
  C         6.4191016595       21.0443440023        5.4711576463
  N         6.6911449995        8.9120250767       16.0132337955
  C         6.4201716278       10.2294175745       16.2832620208
  N         6.6942767471        3.0493429791       17.5729109243
  C         6.4253968317        1.7313331042       17.3030971930
  N         6.6952402665       13.8626326859        6.7606733652
  C         6.4241118226       12.5451189501        6.4913466913
  N         5.1406343110       16.0149850849        3.0477135435
  C         5.4110045169       16.2861831545        1.7302528259
  N         5.1375723225        5.2062917463       13.8631665405
  C         5.4070956641        5.4769031551       12.5455838579
  N        17.5163195269       16.0120823685       19.7215869396
  C        17.2464867619       16.2819973542       21.0394371921
  N        17.5112438251        5.1893731139        8.8997124317
  C        17.2422848660        5.4606651397       10.2174246075
  N         5.1368844647        6.7598204568       19.7264343711
  C         5.4054942479        6.4888496926       21.0442332532
  N         5.1364144519       17.5705311146        8.9112029826
  C         5.4055900434       17.3001059385       10.2288830871
  N        17.5119700717        6.7463177302        3.0363446366
  C        17.2416724781        6.4769376963        1.7185110027
  N        17.5154241370       17.5676624964       13.8589921782
  C        17.2445905960       17.2974151432       12.5414212055
  N         5.1335795039        3.0434401906        6.7575862767
  C         5.4037011785        1.7256124014        6.4878699568
  N         5.1381363084       13.8673825271       17.5754312808
  C         5.4062546739       12.5499051090       17.3026205748
  N        17.5111940353       19.7194663817        6.7491336807
  C        17.2413181671       21.0370697669        6.4782735523
  N        17.5130377003        8.9021574380       17.5665768564
  C        17.2434480845       10.2199995265       17.2967795944
  N         5.1416154674       19.7310574435       16.0196596786
  C         5.4118084215       21.0488620033       16.2886756968
  N         5.1379661155        8.9073426142        5.2030769343
  C         5.4073383536       10.2246447332        5.4753192340
  N        17.5151973497        3.0386699307       16.0100603892
  C        17.2458018508        1.7209565867       16.2809699611
  N        17.5150260070       13.8566962997        5.1929792240
  C        17.2441382639       12.5389781223        5.4624635441
  N         2.9863789652       16.0223308500       17.5785513497
  C         1.6687747800       16.2907091238       17.3064430248
  N        13.8029301824       16.0101159961        6.7492790346
  C        12.4852833371       16.2829745766        6.4816831505
  N        19.6684566169       16.0127952322        5.1942791209
  C        20.9856562402       16.2843133839        5.4656221990
  N         8.8465197508       16.0200275428       16.0200264090
  C        10.1646726229       16.2890166539       16.2890158007
  N        19.6652540772        6.7499175117       17.5687638705
  C        20.9835475603        6.4812241273       17.3000289635
  N         8.8454977693        6.7474762437        6.7474754268
  C        10.1627510935        6.4762589105        6.4762590758
  N         2.9819684414        6.7561055760        5.1998192416
  C         1.6642796252        6.4845014878        5.4687354842
  N        13.8029296740        6.7492770936       16.0101178468
  C        12.4852797253        6.4816829332       16.2829735958
  N        15.9568137986        5.1920956542       19.7187901496
  C        16.2264277659        5.4618857973       21.0366249418
  N        15.9569743156       16.0113676969        8.9029334802
  C        16.2273338975       16.2816386304       10.2205389799
  N        15.9581325861       17.5651467846        3.0385548163
  C        16.2296812265       17.2962931472        1.7209611962
  N        15.9583008803        6.7487731435       13.8564936324
  C        16.2281781129        6.4780150365       12.5388346046
  N         6.6846545904        5.1972139358        3.0429828134
  C         6.4165727215        5.4694356890        1.7254648839
  N         6.6921401464       16.0179442344       13.8681585302
  C         6.4205975754       16.2856145220       12.5504921525
  N         6.6963821880       17.5771269263       19.7321461078
  C         6.4265864252       17.3053537445       21.0497252785
  N         6.6966095129        6.7561446787        8.9058312426
  C         6.4247868038        6.4892598112       10.2237605460
  N        19.6652579484       17.5687632676        6.7499195142
  C        20.9835479376       17.3000261874        6.4812243494
  N         8.8491169298       17.5760102812       17.5760086721
  C        10.1665036784       17.3047108627       17.3047094087
  N         2.9819711420        5.1998213710        6.7561043996
  C         1.6642803142        5.4687354387        6.4845022274
  N        13.8028658515        5.1933948482       17.5663756803
  C        12.4851778582        5.4662638516       17.2989650674
  N         2.9863786001       17.5785535494       16.0223294791
  C         1.6687747202       17.3064448673       16.2907078688
  N        13.8028687560       17.5663756961        5.1933946680
  C        12.4851825824       17.2989652613        5.4662648362
  N        19.6684551174        5.1942791774       16.0127979439
  C        20.9856561452        5.4656211177       16.2843154156
  N         8.8428368249        5.1916461016        5.1916456406
  C        10.1612969356        5.4605719721        5.4605719176
  N         6.6963815636       19.7321510951       17.5771257374
  C         6.4265855915       21.0497291997       17.3053520620
  N         6.6966031608        8.9058319329        6.7561447361
  C         6.4247778753       10.2237622172        6.4892635952
  N         6.6846546909        3.0429864369        5.1972126763
  C         6.4165705148        1.7254696066        5.4694329471
  N         6.6921451173       13.8681594879       16.0179482352
  C         6.4206044306       12.5504920634       16.2856201655
  N        15.9581322624        3.0385562000       17.5651467594
  C        16.2296800157        1.7209593969       17.2962942054
  N        15.9583007023       13.8564925004        6.7487742677
  C        16.2281786073       12.5388359127        6.4780146145
  N        15.9568140947       19.7187913939        5.1920950437
  C        16.2264284037       21.0366245535        5.4618865911
  N        15.9569736281        8.9029320215       16.0113693653
  C        16.2273329848       10.2205386007       16.2816386276
  N        17.5111911624        6.7491323841       19.7194669066
  C        17.2413175081        6.4782730699       21.0370721517
  N        17.5130404495       17.5665768753        8.9021588637
  C        17.2434485993       17.2967793311       10.2199991968
  N         5.1335798458        6.7575870131        3.0434402327
  C         5.4037027474        6.4878727125        1.7256108634
  N         5.1381315334       17.5754286980       13.8673790438
  C         5.4062491435       17.3026150357       12.5499036906
  N        17.5151999065       16.0100573024        3.0386680654
  C        17.2458028125       16.2809685283        1.7209576365
  N        17.5150233620        5.1929801830       13.8566999122
  C        17.2441376635        5.4624637026       12.5389789349
  N         5.1416167329       16.0196623325       19.7310530749
  C         5.4118100732       16.2886785074       21.0488584522
  N         5.1379721047        5.2030753559        8.9073426431
  C         5.4073466003        5.4753138833       10.2246442535
  N        17.5163200065       19.7215876554       16.0120826876
  C        17.2464866314       21.0394362045       16.2819981468
  N        17.5112430017        8.8997096966        5.1893743051
  C        17.2422840138       10.2174235885        5.4606656752
  N         5.1406315857        3.0477151778       16.0149812832
  C         5.4110026868        1.7302568470       16.2861804115
  N         5.1375670420       13.8631685619        5.2062960159
  C         5.4070869250       12.5455835021        5.4769081023
  N        17.5119700788        3.0363421059        6.7463197430
  C        17.2416734459        1.7185089426        6.4769400320
  N        17.5154242918       13.8589929490       17.5676616465
  C        17.2445902041       12.5414214699       17.2974139070
  N         5.1368857907       19.7264320187        6.7598135398
  C         5.4054936260       21.0442346788        6.4888439494
  N         5.1364169312        8.9112073310       17.5705376304
  C         5.4055949035       10.2288837930       17.3001119830
  N        19.6649918032        6.7476197839        5.1918965615
  C        20.9827526951        6.4804830498        5.4648409478
  N         8.8461837825        6.7579044999       16.0185517043
  C        10.1638527862        6.4858863536       16.2870781649
  N         2.9824511947        6.7567748330       17.5729592045
  C         1.6651784321        6.4845602036       17.3022664447
  N        13.8018701289        6.7453064843        6.7453090250
  C        12.4840946728        6.4753666034        6.4753683214
  N         2.9850903445       16.0170885096        5.2001922805
  C         1.6670419884       16.2866591232        5.4686689601
  N        13.8032618688       16.0149216002       16.0149225078
  C        12.4861255491       16.2864290198       16.2864291645
  N        19.6696537026       16.0132604294       17.5689657914
  C        20.9873877848       16.2862767886       17.3019301849
  N         8.8461840765       16.0185531415        6.7579003643
  C        10.1638566773       16.2870793009        6.4858850898
  N         6.6942771388       17.5729126353        3.0493410288
  C         6.4253987968       17.3031001595        1.7313286138
  N         6.6952469910        6.7606708313       13.8626289592
  C         6.4241203607        6.4913416317       12.5451179554
  N         6.6898911841        5.2013217766       19.7267429581
  C         6.4191019817        5.4711633920       21.0443392635
  N         6.6911405021       16.0132289342        8.9120220449
  C         6.4201667985       16.2832555995       10.2294179022
  N        15.9610480071       17.5684321641       19.7220154451
  C        16.2310231845       17.2978526154       21.0396257284
  N        15.9555196922        6.7449915556        8.8993783062
  C        16.2265947896        6.4762742537       10.2172605687
  N        15.9563438102        5.1898565085        3.0353723952
  C        16.2263469531        5.4608215026        1.7179062313
  N        15.9576299513       16.0132001068       13.8594691750
  C        16.2278896952       16.2826603767       12.5417913364
 Zn        14.6634781801       14.7207295936       14.7207300514
 Br        13.3467910880       13.4075098032       13.4075095325
 Zn        14.6631340755        3.8967498217        3.8967501035
 Br        13.3477546739        2.5826084477        2.5826098603
 Zn         3.8468116256       14.7221248696        3.9075614529
 Br         2.5327185920       13.4068941131        2.5941061367
 Zn         3.8468105159        3.9075658005       14.7221244921
 Br         2.5327192667        2.5941107225       13.4068935075
 Zn         7.9898755801        8.0529093228       14.7234140212
 Br         9.3184786851        9.3602807552       13.4163373510
 Zn         7.9856911316       18.8692357676        3.9082318945
 Br         9.3004252027       20.1827796112        2.5937260316
 Zn        18.8056242224        8.0401402919        3.8977254031
 Br        20.1200862901        9.3536699268        2.5824133341
 Zn        18.8106461671       18.8617221524       14.7191633348
 Br        20.1243230959       20.1748754080       13.4030206789
 Zn         7.9898779555       14.7234133916        8.0529079274
 Br         9.3184789972       13.4163323606        9.3602796488
 Zn         7.9856852671        3.9082355570       18.8692330309
 Br         9.3004195880        2.5937299383       20.1827767746
 Zn        18.8106464435       14.7191633453       18.8617204732
 Br        20.1243236180       13.4030207435       20.1748748765
 Zn        18.8056247234        3.8977243742        8.0401430207
 Br        20.1200864957        2.5824123827        9.3536715047
 Zn        14.6636177646        8.0389095463        8.0389112883
 Br        13.3556839463        9.3565215700        9.3565230349
 Zn        14.6683083179       18.8646381385       18.8646384070
 Br        13.3559614915       20.1798305912       20.1798311865
 Zn         3.8435559309        8.0525111530       18.8664537592
 Br         2.5285848476        9.3666090521       20.1803478972
 Zn         3.8435569765       18.8664548156        8.0525097066
 Br         2.5285852493       20.1803495254        9.3666086247
 Zn        14.6648510715       14.7175738487        8.0436056911
 Br        13.3527711512       13.4018292555        9.3588480067
 Zn        14.6641966317        3.8988938623       18.8582467446
 Br        13.3492893747        2.5846834761       20.1724850200
 Zn         3.8466876638       14.7264292800       18.8717343456
 Br         2.5321043376       13.4126333974       20.1861141860
 Zn         3.8436111707        3.9067483939        8.0519162734
 Br         2.5287898170        2.5949645585        9.3681605903
 Zn         7.9946942507        8.0443110138        8.0443060424
 Br         9.3338982333        9.3461014940        9.3460924804
 Zn         7.9911043611       18.8711280209       18.8711257594
 Br         9.3069880797       20.1844683311       20.1844666904
 Zn        18.8046164625        8.0440145878       18.8621120583
 Br        20.1195975766        9.3575263432       20.1766761934
 Zn        18.8046184013       18.8621091900        8.0440134359
 Br        20.1195976408       20.1766742174        9.3575249682
 Zn        14.6648496885        8.0436061279       14.7175736854
 Br        13.3527696258        9.3588489986       13.4018284125
 Zn        14.6641989100       18.8582439216        3.8988944692
 Br        13.3492923393       20.1724819613        2.5846853594
 Zn         3.8436096672        8.0519162265        3.9067471387
 Br         2.5287876859        9.3681594452        2.5949613101
 Zn         3.8466871188       18.8717358535       14.7264263543
 Br         2.5321036991       20.1861156080       13.4126317901
 Zn         7.9875514969       14.7256489764       14.7256481377
 Br         9.3054328778       13.4129074694       13.4129063325
 Zn         7.9742877538        3.9003146475        3.9003130876
 Br         9.2863658858        2.5844758773        2.5844754498
 Zn        18.8108664806       14.7185900991        3.9006257604
 Br        20.1244166307       13.4040094696        2.5857163888
 Zn        18.8108660962        3.9006250785       14.7185908941
 Br        20.1244170649        2.5857154585       13.4040094286
 Zn         5.9108793569        5.9833182661       16.7918607379
 Zn        16.7331169823       16.7861440963       16.7861435062
 Zn        16.7290297632        5.9630905387        5.9630917110
 Zn         5.9108838602       16.7918659029        5.9833060409
 Zn         5.9088009615        5.9732997539        5.9732966927
 Zn        16.7308206910       16.7831747594        5.9661935694
 Zn         5.9132035776       16.8019759955       16.8019674371
 Zn        16.7308177693        5.9661935447       16.7831762940
  N         3.7302597996        5.9796770060       16.7949727137
  N        14.5479077551        5.9670692848        5.9670710013
  N        18.9226779126       16.7894265720       16.7894254530
  N         8.0990919766       16.7976424212        5.9813395317
  N        18.9180497139        5.9681658864        5.9681657058
  N         8.0990863069        5.9813440594       16.7976402018
  N         3.7302589721       16.7949804567        5.9796715171
  N        14.5513661641       16.7922244154       16.7922244326
  N        16.7341629852        3.7823951329        5.9676344433
  N        16.7366190817       14.6057593680       16.7905805718
  N        16.7385472046       18.9748678352       16.7903673746
  N        16.7327861539        8.1525922194        5.9665050469
  N         5.9137262156       18.9796896140        5.9806876714
  N         5.9138202621        8.1649957357       16.7916069578
  N         5.9168085454        3.7954423407       16.7938296122
  N         5.9163796583       14.6095495159        5.9835689214
  N         5.9168138529       16.7938316048        3.7954360045
  N         5.9163751914        5.9835854926       14.6095495913
  N        16.7385463553       16.7903679498       18.9748686595
  N        16.7327919041        5.9664997084        8.1525927272
  N         5.9137150151        5.9806969987       18.9796851017
  N         5.9138335522       16.7916161922        8.1649950739
  N        16.7341568911        5.9676269518        3.7823965578
  N        16.7366210615       16.7905834796       14.6057590681
  N         5.9083463354        3.7899210411        5.9763694245
  N         5.9157188088       14.6147055761       16.7977103758
  N        16.7340441125       18.9721632409        5.9708273054
  N        16.7347694938        8.1555449148       16.7887905102
  N         5.9186083186       18.9849681295       16.7992787579
  N         5.9175545759        8.1597631615        5.9784732032
  N        16.7359713262        3.7851759403       16.7869304710
  N        16.7367872830       14.6030669745        5.9710712386
  N         3.7328907991       16.8012415385       16.8012401859
  N        14.5494909503       16.7866976666        5.9698446905
  N        18.9199133791       16.7899756437        5.9714562157
  N         8.1009739009       16.7986553779       16.7986503372
  N        18.9199143202        5.9714563561       16.7899754131
  N         8.0973892005        5.9702513085        5.9702482914
  N         3.7283854405        5.9787222017        5.9787201412
  N        14.5494855235        5.9698430464       16.7866995518
  N        16.7340475763        5.9708330679       18.9721662235
  N        16.7347695549       16.7887880361        8.1555432710
  N        16.7359738572       16.7869290484        3.7851784481
  N        16.7367812277        5.9710756066       14.6030656182
  N         5.9083541894        5.9763638141        3.7899183829
  N         5.9157171185       16.7977147567       14.6147042144
  N         5.9186069074       16.7992822441       18.9849639155
  N         5.9175510311        5.9784731761        8.1597623245
  C        11.3242199414       15.7380991375       15.7380991599
  H        11.3225074629       14.9625876803       14.9625882058
  C        11.3217434233        4.9104830360        4.9104830780
  H        11.3214236294        4.1349810262        4.1349809967
  C         0.5075652793       15.7359073116        4.9174281301
  H         0.5095652736       14.9602745087        4.1420331725
  C         0.5075618462        4.9174278021       15.7359100876
  H         0.5095646872        4.1420340140       14.9602775371
  C        11.3246164509        7.0331590302       15.7351614135
  H        11.3244243442        7.8080730286       14.9590504326
  C        11.3243071644       17.8510876613        4.9191729978
  H        11.3243750086       18.6268072846        4.1438682852
  C         0.5034635898        7.0323535745        4.9173775045
  H         0.5033322296        7.8078679721        4.1418669631
  C         0.5080387524       17.8540127243       15.7389819624
  H         0.5080410997       18.6294701803       14.9634135083
  C        11.3246163188       15.7351624312        7.0331589206
  H        11.3244263767       14.9590510032        7.8080724907
  C        11.3243055729        4.9191732043       17.8510862148
  H        11.3243683403        4.1438691699       18.6268061103
  C         0.5080397028       15.7389826742       17.8540109308
  H         0.5080418575       14.9634138372       18.6294681261
  C         0.5034645370        4.9173769935        7.0323550529
  H         0.5033336363        4.1418662456        7.8078703147
  C        11.3239150266        7.0254080241        7.0254094379
  H        11.3240476109        7.8009289751        7.8009313864
  C        11.3284562289       17.8530562589       17.8530549286
  H        11.3303037896       18.6285723122       18.6285707501
  C         0.5030560351        7.0324666314       17.8508293283
  H         0.5009361712        7.8080732925       18.6262310788
  C         0.5030601044       17.8508268394        7.0324673983
  H         0.5009366309       18.6262283514        7.8080731102
  C        15.6775032925       11.3814883104       15.7328514549
  H        14.9014383427       11.3820199538       14.9578852018
  C        15.6769339960        0.5569655768        4.9114148279
  H        14.9017516924        0.5565465359        4.1355694992
  C         4.8562821058       11.3854067720        4.9276112927
  H         4.0795682442       11.3858448980        4.1532777740
  C         4.8623814676        0.5688377755       15.7371564946
  H         4.0874290580        0.5675644886       14.9610968519
  C        15.6777269681       11.3779653777        7.0267477749
  H        14.9020964825       11.3778612472        7.8021475921
  C        15.6807041519        0.5603117342       17.8467650600
  H        14.9049832237        0.5603852232       18.6220772158
  C         4.8565885209       11.3889988314       17.8515470380
  H         4.0821515766       11.3882741762       18.6281576096
  C         4.8561362641        0.5647726116        7.0393212282
  H         4.0821391245        0.5644386457        7.8163270694
  C         6.9689971611       11.3903668525       15.7334639599
  H         7.7442129285       11.3911348565       14.9576812794
  C         6.9662518767        0.5650689002        4.9192496064
  H         7.7398940245        0.5655736240        4.1418337835
  C        17.7928860885       11.3781671676        4.9119682336
  H        18.5682180915       11.3781349261        4.1362808961
  C        17.7958583773        0.5600972522       15.7318746904
  H        18.5711234166        0.5600891626       14.9561168892
  C         6.9748591599       11.3840594564        7.0394721054
  H         7.7529495360       11.3836895570        7.8123590531
  C         6.9751180078        0.5713035799       17.8543825487
  H         7.7497693945        0.5726544718       18.6307670006
  C        17.7941521670       11.3802873267       17.8463205540
  H        18.5702662536       11.3796580890       18.6212282393
  C        17.7908048131        0.5580078138        7.0276620052
  H        18.5658672074        0.5584092615        7.8036283006
  C        15.6775037667       15.7328514876       11.3814891721
  H        14.9014389910       14.9578850273       11.3820200674
  C        15.6769334637        4.9114134236        0.5569660297
  H        14.9017512747        4.1355679249        0.5565461386
  C         4.8623829016       15.7371588516        0.5688353939
  H         4.0874301562       14.9610987715        0.5675613203
  C         4.8562921398        4.9276052616       11.3854036563
  H         4.0795785507        4.1532715963       11.3858446182
  C         6.9689906307       15.7334568674       11.3903647157
  H         7.7442062366       14.9576733946       11.3911360209
  C         6.9662537786        4.9192542626        0.5650675819
  H         7.7398960011        4.1418390128        0.5655659847
  C        17.7958588928       15.7318733163        0.5600961005
  H        18.5711237128       14.9561153922        0.5600888674
  C        17.7928859447        4.9119681733       11.3781692391
  H        18.5682179220        4.1362808036       11.3781377512
  C        15.6777277170        7.0267480088       11.3779672700
  H        14.9020972432        7.8021481887       11.3778591612
  C        15.6807048612       17.8467643682        0.5603111660
  H        14.9049840812       18.6220762348        0.5603870708
  C         4.8561377301        7.0393259367        0.5647725014
  H         4.0821410826        7.8163318866        0.5644405114
  C         4.8565828911       17.8515407361       11.3889949488
  H         4.0821462555       18.6281512841       11.3882711721
  C         6.9748684837        7.0394663822       11.3840580661
  H         7.7529587414        7.8123530693       11.3836884450
  C         6.9751196546       17.8543850223        0.5713009098
  H         7.7497713986       18.6307693494        0.5726490102
  C        17.7908043309        7.0276608015        0.5580071800
  H        18.5658670082        7.8036274841        0.5584125360
  C        17.7941523097       17.8463211542       11.3802889316
  H        18.5702658772       18.6212287432       11.3796573461
 Kr         6.4964054690       11.3365270362       11.3365382945
