     409
 i =      96, E =    -5186.5843551195
  N         3.0106701825        5.2073097319       16.0208100932
  C         1.6923400899        5.4783585772       16.2881599806
  N        13.8199719212        5.2044645807        5.2044657206
  C        12.5026484136        5.4752776640        5.4752757744
  N        19.6958943097       17.5724958423       16.0159469238
  C        21.0140065662       17.3022172785       16.2860711044
  N         8.8700071030       17.5760272756        5.2080017844
  C        10.1876319891       17.3041812365        5.4761285376
  N        19.6864185479        5.2032234908        6.7595029406
  C        21.0042552009        5.4766481732        6.4927376625
  N         8.8700081569        5.2080027661       17.5760258005
  C        10.1876338313        5.4761316373       17.3041807861
  N         3.0085428528       17.5768839541        6.7638999612
  C         1.6908705414       17.3042275385        6.4944660887
  N        13.8319373312       17.5733740817       17.5733720937
  C        12.5137960849       17.3040417511       17.3040387642
  N        15.9702642828        3.0466026273        5.2033558766
  C        16.2394973863        1.7287356071        5.4747850108
  N        15.9807034690       13.8646961261       16.0155201405
  C        16.2497814132       12.5472448930       16.2856675442
  N        15.9830354799       19.7292272494       17.5710944961
  C        16.2488891465       21.0473306433       17.2984756311
  N        15.9734648096        8.9101514836        6.7587869070
  C        16.2433234735       10.2274114433        6.4883080659
  N         6.7197318045       19.7363192626        5.2086266413
  C         6.4494429230       21.0539103669        5.4792252545
  N         6.7197162337        8.9147616453       16.0191273970
  C         6.4498533191       10.2320454474       16.2883756698
  N         6.7203248420        3.0524548957       17.5787421082
  C         6.4536687719        1.7344671437       17.3066050197
  N         6.7149220086       13.8683475739        6.7674537498
  C         6.4425196166       12.5513313075        6.4995229347
  N         5.1671342189       16.0208390292        3.0514956681
  C         5.4389831308       16.2893981487        1.7338224262
  N         5.1623281244        5.2096416836       13.8697328155
  C         5.4282948022        5.4819626852       12.5520737430
  N        17.5370531030       16.0138637558       19.7303901107
  C        17.2640637640       16.2817098022       21.0481216781
  N        17.5289509816        5.2025470582        8.9094918908
  C        17.2591236847        5.4721472849       10.2270164483
  N         5.1649723241        6.7651756908       19.7351075787
  C         5.4340339158        6.4958045284       21.0531331374
  N         5.1658418384       17.5765940157        8.9151133570
  C         5.4351448615       17.3056027528       10.2324067614
  N        17.5273486116        6.7583236080        3.0471221602
  C        17.2561042920        6.4902002379        1.7292737478
  N        17.5367094818       17.5711455826       13.8642980941
  C        17.2658715331       17.3015571299       12.5469091591
  N         5.1599182754        3.0518538768        6.7647847874
  C         5.4313946606        1.7341538702        6.4957163395
  N         5.1689951596       13.8696029764       17.5767290439
  C         5.4366106982       12.5520300579       17.3056094347
  N        17.5315268809       19.7305148529        6.7584809193
  C        17.2583703948       21.0480763909        6.4903698584
  N        17.5333742664        8.9093623741       17.5724360761
  C        17.2642246723       10.2268876988       17.3020968354
  N         5.1712521022       19.7349309758       16.0201019687
  C         5.4411815957       21.0528460612       16.2890634674
  N         5.1577717846        8.9151688680        5.2101818708
  C         5.4260894575       10.2324615425        5.4822156152
  N        17.5328477969        3.0474398349       16.0143873491
  C        17.2617214434        1.7294225567       16.2820681380
  N        17.5324853238       13.8643714370        5.2038381574
  C        17.2608505076       12.5470132278        5.4726652878
  N         3.0143636014       16.0213726574       17.5778740155
  C         1.6963085448       16.2886667905       17.3047762794
  N        13.8257638857       16.0163727847        6.7591261576
  C        12.5082477128       16.2865285766        6.4896734259
  N        19.6926156369       16.0160572456        5.2039166520
  C        21.0103210151       16.2857316541        5.4763942425
  N         8.8739447053       16.0195108840       16.0195099339
  C        10.1917165981       16.2890754041       16.2890733925
  N        19.6906407155        6.7593940612       17.5734477065
  C        21.0089207823        6.4920675318       17.3022913841
  N         8.8666976559        6.7640005626        6.7640015675
  C        10.1837358479        6.4932014856        6.4931990591
  N         3.0035653128        6.7649217990        5.2089231000
  C         1.6857036468        6.4954434511        5.4794274453
  N        13.8257619910        6.7591283680       16.0163706112
  C        12.5082480355        6.4896752458       16.2865288541
  N        15.9757924804        5.2025173600       19.7289419957
  C        16.2422304289        5.4745089021       21.0471586412
  N        15.9779486960       16.0161479751        8.9099842986
  C        16.2483881544       16.2859740129       10.2272533996
  N        15.9771916714       17.5704899960        3.0463723820
  C        16.2459866135       17.2983136548        1.7286692249
  N        15.9762815076        6.7593215695       13.8648518385
  C        16.2447542980        6.4885537725       12.5474111699
  N         6.7145290810        5.2080802609        3.0527314558
  C         6.4467148164        5.4791109023        1.7348503612
  N         6.7216821160       16.0188622579       13.8687442421
  C         6.4509530591       16.2881438087       12.5515509625
  N         6.7249418256       17.5777875227       19.7357257290
  C         6.4560611363       17.3061742070       21.0534231634
  N         6.7120103980        6.7673006402        8.9149901947
  C         6.4408206040        6.4994242649       10.2321160825
  N        19.6906397103       17.5734491516        6.7593929155
  C        21.0089217210       17.3022940747        6.4920654694
  N         8.8751423253       17.5759453722       17.5759441092
  C        10.1926599201       17.3051577168       17.3051555120
  N         3.0035677360        5.2089163311        6.7649277109
  C         1.6857058583        5.4794212999        6.4954490553
  N        13.8259613264        5.2032489125       17.5721869266
  C        12.5082592575        5.4738866790       17.3026982094
  N         3.0143641986       17.5778762085       16.0213704083
  C         1.6963085456       17.3047775403       16.2886656210
  N        13.8259616127       17.5721868968        5.2032491124
  C        12.5082586368       17.3026977774        5.4738851506
  N        19.6926149742        5.2039150286       16.0160538055
  C        21.0103199524        5.4763958747       16.2857290931
  N         8.8646467028        5.2079821827        5.2079835480
  C        10.1823912633        5.4772056762        5.4772035114
  N         6.7249403608       19.7357248572       17.5777867322
  C         6.4560589683       21.0534218280       17.3061753143
  N         6.7120128932        8.9149878839        6.7673065673
  C         6.4408265770       10.2321127846        6.4994238521
  N         6.7145277267        3.0527275770        5.2080840993
  C         6.4467122056        1.7348486721        5.4791141545
  N         6.7216812440       13.8687441365       16.0188607688
  C         6.4509496600       12.5515490210       16.2881397573
  N        15.9771914374        3.0463710986       17.5704907700
  C        16.2459884517        1.7286705357       17.2983140088
  N        15.9762821064       13.8648526359        6.7593200369
  C        16.2447533721       12.5474091254        6.4885529955
  N        15.9757947496       19.7289404164        5.2025191009
  C        16.2422310392       21.0471584292        5.4745087760
  N        15.9779454218        8.9099854222       16.0161457109
  C        16.2483864176       10.2272527713       16.2859737690
  N        17.5315271381        6.7584819066       19.7305162632
  C        17.2583698995        6.4903703780       21.0480760716
  N        17.5333751946       17.5724356898        8.9093609317
  C        17.2642263191       17.3020969892       10.2268884299
  N         5.1599195360        6.7647808337        3.0518536196
  C         5.4313967586        6.4957135039        1.7341528340
  N         5.1689961875       17.5767316019       13.8696036075
  C         5.4366150885       17.3056131869       12.5520319607
  N        17.5328450912       16.0143893528        3.0474400850
  C        17.2617197280       16.2820676934        1.7294205359
  N        17.5324868460        5.2038368976       13.8643711352
  C        17.2608509720        5.4726661953       12.5470155103
  N         5.1712532192       16.0201028909       19.7349319039
  C         5.4411834514       16.2890621810       21.0528472068
  N         5.1577718428        5.2101777605        8.9151680750
  C         5.4260834339        5.4822155649       10.2324624093
  N        17.5370538849       19.7303903676       16.0138624773
  C        17.2640651264       21.0481228969       16.2817098974
  N        17.5289511712        8.9094909906        5.2025487608
  C        17.2591231174       10.2270142320        5.4721473062
  N         5.1671314140        3.0514939521       16.0208377581
  C         5.4389825826        1.7338210772       16.2893978566
  N         5.1623290150       13.8697334777        5.2096386191
  C         5.4282963749       12.5520770628        5.4819599652
  N        17.5273497141        3.0471205652        6.7583251342
  C        17.2561048472        1.7292732225        6.4901999763
  N        17.5367080833       13.8642990973       17.5711439303
  C        17.2658707387       12.5469087222       17.3015570240
  N         5.1649759808       19.7351085973        6.7651772580
  C         5.4340344485       21.0531346428        6.4958022650
  N         5.1658394511        8.9151119745       17.5765887063
  C         5.4351427895       10.2324063082       17.3056010608
  N        19.6864165117        6.7595005270        5.2032261541
  C        21.0042538980        6.4927366838        5.4766493569
  N         8.8704088523        6.7622580742       16.0178471482
  C        10.1878133890        6.4912118623       16.2871756535
  N         3.0085430580        6.7639008240       17.5768836781
  C         1.6908720892        6.4944690032       17.3042278393
  N        13.8216314204        6.7601795526        6.7601801778
  C        12.5038547590        6.4912431194        6.4912409265
  N         3.0106715079       16.0208113795        5.2073104011
  C         1.6923415226       16.2881599931        5.4783564709
  N        13.8298191210       16.0173115707       16.0173097750
  C        12.5125499905       16.2880243063       16.2880215178
  N        19.6958940325       16.0159494159       17.5724927508
  C        21.0140061331       16.2860722926       17.3022157227
  N         8.8704099604       16.0178492877        6.7622562942
  C        10.1878142237       16.2871764905        6.4912082656
  N         6.7203257102       17.5787419943        3.0524566634
  C         6.4536689968       17.3066052916        1.7344681605
  N         6.7149192755        6.7674541063       13.8683499337
  C         6.4425190540        6.4995260617       12.5513309767
  N         6.7197288350        5.2086235453       19.7363221201
  C         6.4494418835        5.4792275229       21.0539121038
  N         6.7197202882       16.0191307551        8.9147630065
  C         6.4498551743       16.2883771127       10.2320457199
  N        15.9830340008       17.5710958362       19.7292275751
  C        16.2488879357       17.2984751137       21.0473300683
  N        15.9734650048        6.7587853073        8.9101518679
  C        16.2433237863        6.4883085249       10.2274124737
  N        15.9702639490        5.2033547965        3.0466042780
  C        16.2394965392        5.4747846488        1.7287352830
  N        15.9807047991       16.0155211068       13.8646950944
  C        16.2497829135       16.2856680271       12.5472455785
 Zn        14.6867719137       14.7227975692       14.7227974969
 Cl        13.4537030353       13.4908906238       13.4908903326
 Zn        14.6771802834        3.9093889331        3.9093903865
 Cl        13.4390619301        2.6801718679        2.6801734103
 Zn         3.8765883169       14.7283275837        3.9121428811
 Cl         2.6417765084       13.4938444576        2.6839949457
 Zn         3.8765885799        3.9121397666       14.7283287676
 Cl         2.6417759403        2.6839955201       13.4938454529
 Zn         8.0101907918        8.0567525894       14.7239277630
 Cl         9.2415692807        9.2890146287       13.4906288703
 Zn         8.0091478413       18.8729503151        3.9155649277
 Cl         9.2479606699       20.1004919757        2.6847794431
 Zn        18.8220282781        8.0503693967        3.9077101687
 Cl        20.0517266442        9.2860416775        2.6763544825
 Zn        18.8289338236       18.8663307778       14.7231602627
 Cl        20.0602979195       20.0936847688       13.4847529730
 Zn         8.0101905101       14.7239264018        8.0567548403
 Cl         9.2415712682       13.4906259219        9.2890168649
 Zn         8.0091481600        3.9155610666       18.8729516224
 Cl         9.2479625911        2.6847771662       20.1004955648
 Zn        18.8289343006       14.7231599481       18.8663309550
 Cl        20.0602996626       13.4847519319       20.0936851701
 Zn        18.8220282709        3.9077091127        8.0503704587
 Cl        20.0517258863        2.6763545223        9.2860427819
 Zn        14.6793695934        8.0535281111        8.0535288980
 Cl        13.4488663988        9.2865945924        9.2865950770
 Zn        14.6969745601       18.8674645089       18.8674648641
 Cl        13.4578416246       20.0966672934       20.0966673218
 Zn         3.8745614645        8.0559460513       18.8713020746
 Cl         2.6431557189        9.2937050617       20.0994497827
 Zn         3.8745607303       18.8713008007        8.0559483547
 Cl         2.6431551396       20.0994503398        9.2937049853
 Zn        14.6828963736       14.7227299327        8.0533064015
 Cl        13.4511906340       13.4905047728        9.2861005528
 Zn        14.6864070935        3.9075370360       18.8656971160
 Cl        13.4481287785        2.6774628176       20.0943168856
 Zn         3.8810955694       14.7281226756       18.8722115630
 Cl         2.6474413406       13.4931008678       20.1009996541
 Zn         3.8670959985        3.9139487117        8.0558603623
 Cl         2.6361093051        2.6853438686        9.2932978806
 Zn         8.0071745156        8.0575814375        8.0575791415
 Cl         9.2371685042        9.2910154340        9.2910170489
 Zn         8.0134086268       18.8713677488       18.8713692480
 Cl         9.2550376979       20.0991053845       20.0991052499
 Zn        18.8248223808        8.0503501762       18.8687075797
 Cl        20.0567097391        9.2869234764       20.0971389516
 Zn        18.8248233367       18.8687062344        8.0503498035
 Cl        20.0567098477       20.0971380049        9.2869220209
 Zn        14.6828959833        8.0533062968       14.7227313580
 Cl        13.4511907773        9.2860994456       13.4905058601
 Zn        14.6864080434       18.8656961319        3.9075364719
 Cl        13.4481303363       20.0943159362        2.6774627883
 Zn         3.8670950458        8.0558633025        3.9139469036
 Cl         2.6361039531        9.2933020341        2.6853405302
 Zn         3.8810971164       18.8722092469       14.7281240640
 Cl         2.6474443843       20.1009971111       13.4931025761
 Zn         8.0126345254       14.7248686804       14.7248701755
 Cl         9.2441225894       13.4920820521       13.4920831397
 Zn         8.0046679489        3.9137601053        3.9137572987
 Cl         9.2409284635        2.6834146991        2.6834161413
 Zn        18.8263963338       14.7234323307        3.9101664561
 Cl        20.0551380655       13.4857396820        2.6795993438
 Zn        18.8263950941        3.9101677260       14.7234341739
 Cl        20.0551354497        2.6796012759       13.4857422786
 Zn         5.9442010000        5.9893133892       16.8029592641
 Zn        16.7650450751       16.7924398906       16.7924367538
 Zn        16.7564458297        5.9808520929        5.9808556720
 Zn         5.9442023135       16.8029598028        5.9893136868
 Zn         5.9395895895        5.9895535377        5.9895619006
 Zn        16.7613240610       16.7932036613        5.9813213590
 Zn         5.9477247792       16.8028958622       16.8028943693
 Zn        16.7613233180        5.9813205926       16.7932013042
  N         3.7559669652        5.9850635376       16.8003124531
  N        14.5675067428        5.9819122369        5.9819143586
  N        18.9496570248       16.7942652155       16.7942634807
  N         8.1239919153       16.7977360527        5.9859794403
  N        18.9400726768        5.9795257257        5.9795270730
  N         8.1239915803        5.9859814758       16.7977332795
  N         3.7559667318       16.8003089609        5.9850637252
  N        14.5774220739       16.7949272093       16.7949261899
  N        16.7495852388        3.7934318823        5.9799138309
  N        16.7592112920       14.6109203404       16.7931051519
  N        16.7620409987       18.9830095445       16.7939480819
  N        16.7513043594        8.1633655285        5.9809765763
  N         5.9427002148       18.9891221059        5.9867106594
  N         5.9431288071        8.1685956311       16.7984083078
  N         5.9423440547        3.7987489380       16.8008020679
  N         5.9405526785       14.6158379186        5.9872502282
  N         5.9423424024       16.8008046561        3.7987479189
  N         5.9405591839        5.9872466924       14.6158372159
  N        16.7620407544       16.7939492588       18.9830081226
  N        16.7513032695        5.9809751432        8.1633670782
  N         5.9426985974        5.9867125334       18.9891219318
  N         5.9431251141       16.7984048941        8.1685950903
  N        16.7495854652        5.9799130946        3.7934320482
  N        16.7592120180       16.7931058694       14.6109201997
  N         5.9363727432        3.7990587237        5.9859153294
  N         5.9463006032       14.6159557340       16.7984194799
  N        16.7555932933       18.9830039786        5.9793172772
  N        16.7554111481        8.1632327822       16.7943602873
  N         5.9477208296       18.9887437319       16.7996814899
  N         5.9359818432        8.1687223918        5.9876008857
  N        16.7558744125        3.7935347577       16.7937399247
  N        16.7552869616       14.6110644276        5.9821871862
  N         3.7606528609       16.8012471153       16.8012463928
  N        14.5725330377       16.7940649476        5.9809633439
  N        18.9453296311       16.7952473617        5.9803197517
  N         8.1283835498       16.7980714690       16.7980719165
  N        18.9453278184        5.9803196598       16.7952470153
  N         8.1193408205        5.9863902470        5.9863931047
  N         3.7501319204        5.9865479540        5.9865542036
  N        14.5725345013        5.9809642927       16.7940634654
  N        16.7555928872        5.9793175370       18.9830020591
  N        16.7554130143       16.7943605428        8.1632343191
  N        16.7558736791       16.7937404263        3.7935322958
  N        16.7552868626        5.9821875922       14.6110663736
  N         5.9363744607        5.9859119866        3.7990614320
  N         5.9462989017       16.7984176648       14.6159563249
  N         5.9477209315       16.7996823170       18.9887435684
  N         5.9359844493        5.9875918774        8.1687266205
  C        11.3516519448       15.7381076252       15.7381047423
  H        11.3509720951       14.9624983169       14.9624954042
  C        11.3416598234        4.9257547259        4.9257524605
  H        11.3401380701        4.1502117151        4.1502113096
  C         0.5323598125       15.7360924036        4.9280337393
  H         0.5342830112       14.9599879369        4.1530543064
  C         0.5323600471        4.9280368610       15.7360914722
  H         0.5342818147        4.1530575468       14.9599880356
  C        11.3482351233        7.0405874607       15.7359297858
  H        11.3485167684        7.8159051202       14.9600460079
  C        11.3477952712       17.8539724085        4.9247708797
  H        11.3473915126       18.6298257995        4.1495636410
  C         0.5250240329        7.0451195445        4.9286047527
  H         0.5252159420        7.8212443667        4.1536355311
  C         0.5351877063       17.8529696704       15.7368307519
  H         0.5353444540       18.6281859974       14.9609709289
  C        11.3482357191       15.7359271816        7.0405875647
  H        11.3485178166       14.9600430550        7.8159064324
  C        11.3477950015        4.9247707798       17.8539748344
  H        11.3473923486        4.1495625971       18.6298284607
  C         0.5351873448       15.7368295628       17.8529703691
  H         0.5353433707       14.9609688873       18.6281873198
  C         0.5250240159        4.9286054866        7.0451181468
  H         0.5252180545        4.1536372657        7.8212415169
  C        11.3447054927        7.0428373215        7.0428345090
  H        11.3460498352        7.8184309466        7.8184297331
  C        11.3537678946       17.8548363390       17.8548330794
  H        11.3544019867       18.6303480002       18.6303445743
  C         0.5289368119        7.0439225661       17.8527701372
  H         0.5272926362        7.8198309089       18.6279372963
  C         0.5289363459       17.8527724887        7.0439197302
  H         0.5272925437       18.6279393938        7.8198280870
  C        15.6984459619       11.3874953204       15.7350758390
  H        14.9229843019       11.3878802813       14.9593096315
  C        15.6896636226        0.5673971170        4.9253011298
  H        14.9134510623        0.5665391359        4.1503900619
  C         4.8767135443       11.3927352972        4.9311524902
  H         4.1023647954       11.3933480779        4.1544069492
  C         4.8906196173        0.5729306650       15.7378640315
  H         4.1156164111        0.5722074889       14.9617107110
  C        15.6932570848       11.3876720049        7.0389753613
  H        14.9178961449       11.3880864258        7.8148266131
  C        15.6965369807        0.5673778695       17.8481136995
  H        14.9208682788        0.5664051427       18.6235872105
  C         4.8856413280       11.3925612608       17.8567089218
  H         4.1109793356       11.3929837518       18.6331326529
  C         4.8829343935        0.5730737399        7.0467673738
  H         4.1080825452        0.5720802946        7.8230355428
  C         7.0002355565       11.3914991643       15.7364665487
  H         7.7750681028       11.3909518582       14.9600659228
  C         6.9984443389        0.5749831771        4.9288205574
  H         7.7739400744        0.5760974246        4.1532177788
  C        17.8103335843       11.3867228159        4.9216682642
  H        18.5858977202       11.3862991039        4.1461545526
  C        17.8121142224        0.5693873879       15.7305683734
  H        18.5870254927        0.5705837368       14.9543927588
  C         6.9910522350       11.3913343146        7.0518120569
  H         7.7661139252       11.3906238476        7.8279686932
  C         7.0052743588        0.5744204064       17.8566513323
  H         7.7806640134        0.5753368356       18.6323347520
  C        17.8157198117       11.3866377137       17.8522010358
  H        18.5916490168       11.3862631097       18.6273435535
  C        17.8070245107        0.5692391083        7.0409715643
  H        18.5826356824        0.5703456357        7.8164538827
  C        15.6984463018       15.7350749722       11.3874944542
  H        14.9229841707       14.9593085593       11.3878801169
  C        15.6896628918        4.9253007629        0.5673984765
  H        14.9134505513        4.1503892129        0.5665395406
  C         4.8906199220       15.7378615445        0.5729323534
  H         4.1156155188       14.9617084234        0.5722088958
  C         4.8767103353        4.9311571411       11.3927358840
  H         4.1023666012        4.1544095299       11.3933475874
  C         7.0002412826       15.7364694571       11.3915007687
  H         7.7750728672       14.9600665484       11.3909529796
  C         6.9984441625        4.9288194090        0.5749836950
  H         7.7739397066        4.1532155368        0.5760993569
  C        17.8121145336       15.7305659897        0.5693873423
  H        18.5870266875       14.9543896722        0.5705825718
  C        17.8103333452        4.9216695188       11.3867237428
  H        18.5858965609        4.1461561131       11.3863010739
  C        15.6932580192        7.0389759527       11.3876720206
  H        14.9178971864        7.8148268337       11.3880867437
  C        15.6965363317       17.8481119310        0.5673784328
  H        14.9208677632       18.6235851271        0.5664052619
  C         4.8829331486        7.0467677766        0.5730745954
  H         4.1080796978        7.8230363245        0.5720793456
  C         4.8856474231       17.8567124550       11.3925628087
  H         4.1109843220       18.6331346098       11.3929851836
  C         6.9910477522        7.0518150118       11.3913346689
  H         7.7661122766        7.8279671418       11.3906254686
  C         7.0052747803       17.8566492350        0.5744220193
  H         7.7806632072       18.6323330002        0.5753377891
  C        17.8070238370        7.0409719596        0.5692407679
  H        18.5826353992        7.8164544580        0.5703465710
  C        17.8157198495       17.8522001809       11.3866369909
  H        18.5916484821       18.6273423297       11.3862630584
 Kr         3.6740280701       10.6606456786       10.6606455964
