     409
 i =      96, E =    -5186.5866120983
  N         2.9238312138        5.1994680996       16.0101917120
  C         1.6058697112        5.4710722297       16.2774413314
  N        13.7455544541        5.1840259044        5.1840248368
  C        12.4266953783        5.4501322652        5.4501360454
  N        19.6087492997       17.5615436979       16.0059208248
  C        20.9267163266       17.2926307656       16.2765969168
  N         8.7894175453       17.5909208896        5.1780267560
  C        10.1067847370       17.3174558458        5.4479278620
  N        19.6034534912        5.2008727995        6.7572819333
  C        20.9213583858        5.4730655751        6.4891742129
  N         8.7894268670        5.1780179096       17.5909309429
  C        10.1067792585        5.4479304422       17.3174533439
  N         2.9225177569       17.5665680889        6.7558065029
  C         1.6048997488       17.2936224787        6.4870432692
  N        13.7481748485       17.5738588431       17.5738599322
  C        12.4290949079       17.3075648198       17.3075655676
  N        15.9037138809        3.0365496695        5.1922651668
  C        16.1721776798        1.7194120864        5.4655429081
  N        15.8878597933       13.8585139774       16.0102338246
  C        16.1576913647       12.5406820649       16.2782302240
  N        15.9045817349       19.7222923234       17.5670104736
  C        16.1729743140       21.0396898709       17.2944549280
  N        15.8834939124        8.9013467623        6.7472772909
  C        16.1537764403       10.2194853367        6.4799732295
  N         6.6225986365       19.7276483081        5.1957433311
  C         6.3556205265       21.0444674877        5.4699964961
  N         6.6400267712        8.9029802158       16.0191142799
  C         6.3701646672       10.2218410761       16.2853890005
  N         6.6266606703        3.0418609194       17.5723109007
  C         6.3612340605        1.7245806748       17.2977314991
  N         6.6448478954       13.8614936052        6.7544400812
  C         6.3735403333       12.5432028853        6.4873161265
  N         5.0790343481       16.0085196972        3.0421222333
  C         5.3503303285       16.2767167689        1.7245407004
  N         5.0840238384        5.2035126712       13.8607205128
  C         5.3542366709        5.4744983777       12.5434041724
  N        17.4543788576       16.0053664227       19.7210635525
  C        17.1851662783       16.2746264272       21.0393792370
  N        17.4431817131        5.1964398634        8.9029384432
  C        17.1727009058        5.4670313168       10.2199952011
  N         5.0746488963        6.7588588079       19.7256953071
  C         5.3447432358        6.4909844893       21.0435973518
  N         5.0792510126       17.5693781176        8.9067259906
  C         5.3509430653       17.2981758890       10.2235775515
  N        17.4528197562        6.7546627732        3.0384071237
  C        17.1837755348        6.4858743401        1.7201924137
  N        17.4488148764       17.5603156797       13.8572170536
  C        17.1772034125       17.2906737170       12.5401075134
  N         5.0727777718        3.0416200593        6.7587331307
  C         5.3436686908        1.7237781071        6.4909723606
  N         5.0820956871       13.8614049697       17.5677712268
  C         5.3522966536       12.5440498947       17.2973518972
  N        17.4530530155       19.7203278693        6.7561749143
  C        17.1841491652       21.0387562369        6.4868068561
  N        17.4459493838        8.9034884894       17.5600282637
  C        17.1755406167       10.2206947475       17.2904288241
  N         5.0806342041       19.7263194147       16.0097123296
  C         5.3512347766       21.0442405273       16.2774038033
  N         5.0816368857        8.9061881573        5.2003707788
  C         5.3530593675       10.2229136330        5.4728124721
  N        17.4531939946        3.0389199187       16.0060063039
  C        17.1843209474        1.7208292653       16.2751764316
  N        17.4461731463       13.8565104241        5.1974343725
  C        17.1744557499       12.5394978280        5.4674419592
  N         2.9256967488       16.0127839890       17.5690709701
  C         1.6080062995       16.2801974557       17.2962457120
  N        13.7391794869       16.0171295620        6.7415608820
  C        12.4231337308       16.2915953953        6.4684200814
  N        19.6066781647       16.0045334471        5.1998927217
  C        20.9244123260       16.2744421332        5.4712937515
  N         8.7857881786       16.0312336875       16.0312317833
  C        10.1040150349       16.2987395649       16.2987393839
  N        19.6051883536        6.7562915524       17.5601247565
  C        20.9233525418        6.4874335692       17.2904465782
  N         8.7847159485        6.7265391258        6.7265392141
  C        10.1027090283        6.4589481916        6.4589515099
  N         2.9209866028        6.7577647545        5.2013198506
  C         1.6030741679        6.4892530224        5.4731273157
  N        13.7391886331        6.7415564967       16.0171367504
  C        12.4231278192        6.4684196837       16.2915958246
  N        15.9043691755        5.1935785267       19.7220651099
  C        16.1726492939        5.4663463007       21.0392442075
  N        15.8856373181       16.0100807647        8.9026606400
  C        16.1562176389       16.2779652152       10.2205362652
  N        15.9030481674       17.5675300762        3.0375698722
  C        16.1720817628       17.2948750546        1.7202504574
  N        15.8861547890        6.7487674049       13.8579665288
  C        16.1554988074        6.4804790778       12.5400087539
  N         6.6196545587        5.1944085601        3.0403409077
  C         6.3541218274        5.4694859501        1.7234143227
  N         6.6419173562       16.0159109173       13.8619506897
  C         6.3710253979       16.2840143794       12.5437590500
  N         6.6291019655       17.5724257919       19.7278079644
  C         6.3625153492       17.2980186984       21.0449580307
  N         6.6434125790        6.7495148486        8.9016142447
  C         6.3728999317        6.4850258170       10.2207849610
  N        19.6052034341       17.5601309983        6.7563042408
  C        20.9233536859       17.2904426954        6.4874352201
  N         8.7904541151       17.5867937003       17.5867920581
  C        10.1077464848       17.3147281662       17.3147283418
  N         2.9209514474        5.2013015098        6.7577800058
  C         1.6030869716        5.4731237464        6.4892556730
  N        13.7468941418        5.1873269210       17.5750731048
  C        12.4279043149        5.4536622106       17.3088511733
  N         2.9257398703       17.5690560990       16.0127999040
  C         1.6079850961       17.2962409132       16.2802039680
  N        13.7468980077       17.5750679541        5.1873315648
  C        12.4279118720       17.3088496048        5.4536626848
  N        19.6066788502        5.1998864916       16.0045241341
  C        20.9244190672        5.4712931355       16.2744430126
  N         8.7881941803        5.1719477524        5.1719493426
  C        10.1057901538        5.4430561019        5.4430605227
  N         6.6291114791       19.7278294930       17.5724311812
  C         6.3625222382       21.0449562842       17.2980195663
  N         6.6434085900        8.9015976231        6.7495124655
  C         6.3728839240       10.2207988443        6.4850287117
  N         6.6196543077        3.0403361003        5.1944079980
  C         6.3541241899        1.7234233136        5.4694863919
  N         6.6419128413       13.8619617313       16.0159116269
  C         6.3710248425       12.5437524052       16.2840163518
  N        15.9030330000        3.0375452843       17.5675421504
  C        16.1720759880        1.7202617105       17.2948764292
  N        15.8861465511       13.8579436163        6.7487767276
  C        16.1554955229       12.5400192355        6.4804825232
  N        15.9043701950       19.7220831760        5.1935806036
  C        16.1726432218       21.0392218646        5.4663408038
  N        15.8856285444        8.9026814332       16.0100734409
  C        16.1562103962       10.2205242463       16.2779608982
  N        17.4530496428        6.7561783880       19.7203490866
  C        17.1841511892        6.4868133459       21.0387381927
  N        17.4459605676       17.5600366183        8.9035123379
  C        17.1755484235       17.2904336004       10.2206805283
  N         5.0727838261        6.7587286396        3.0416257266
  C         5.3436644075        6.4909721661        1.7237760654
  N         5.0820997540       17.5677690639       13.8614076393
  C         5.3522980414       17.2973476464       12.5440479629
  N        17.4532055683       16.0059986062        3.0388934872
  C        17.1843298027       16.2751723560        1.7208391975
  N        17.4461811147        5.1974241287       13.8564902815
  C        17.1744571268        5.4674401076       12.5395060916
  N         5.0806182252       16.0097016199       19.7263463767
  C         5.3512320857       16.2774073042       21.0442247290
  N         5.0816384543        5.2003753479        8.9061641354
  C         5.3530703613        5.4728070769       10.2229308123
  N        17.4543679061       19.7210515649       16.0053773597
  C        17.1851613504       21.0393815519       16.2746269169
  N        17.4431795329        8.9029475161        5.1964424771
  C        17.1727037895       10.2199836559        5.4670263003
  N         5.0790308720        3.0421282075       16.0085201869
  C         5.3503355040        1.7245485736       16.2767182563
  N         5.0840375032       13.8607425451        5.2035220054
  C         5.3542303073       12.5433923549        5.4745082348
  N        17.4528377377        3.0383657416        6.7546798024
  C        17.1837834307        1.7202112606        6.4858806611
  N        17.4488183530       13.8571954759       17.5603204648
  C        17.1772047461       12.5401206681       17.2906776428
  N         5.0746529202       19.7256890549        6.7588543717
  C         5.3447429259       21.0436044548        6.4909870554
  N         5.0792514398        8.9067226145       17.5693789488
  C         5.3509481001       10.2235810753       17.2981747563
  N        19.6034591895        6.7572749381        5.2008821025
  C        20.9213421541        6.4891783389        5.4730612753
  N         8.7852359904        6.7304418657       16.0332559981
  C        10.1034118844        6.4623198552       16.2999983262
  N         2.9225265981        6.7557981260       17.5665646412
  C         1.6048976678        6.4870382797       17.2936234161
  N        13.7381520587        6.7398523469        6.7398522580
  C        12.4220862843        6.4661080810        6.4661106281
  N         2.9238540413       16.0102070211        5.1994813954
  C         1.6058656830       16.2774373433        5.4710696314
  N        13.7401070566       16.0176820308       16.0176812511
  C        12.4240219013       16.2915474555       16.2915477516
  N        19.6087345628       16.0059207810       17.5615388699
  C        20.9267340545       16.2766006018       17.2926246447
  N         8.7852390283       16.0332548099        6.7304406301
  C        10.1034184872       16.2999948545        6.4623231579
  N         6.6266509984       17.5722969672        3.0418749762
  C         6.3612348365       17.2977358391        1.7245744697
  N         6.6448443093        6.7544371416       13.8615026296
  C         6.3735451193        6.4873017190       12.5431990339
  N         6.6226063194        5.1957365535       19.7276543461
  C         6.3556139679        5.4700013776       21.0444668640
  N         6.6400205228       16.0191208381        8.9029649743
  C         6.3701648443       16.2853860012       10.2218500179
  N        15.9045892753       17.5670035505       19.7222824145
  C        16.1729794798       17.2944531380       21.0396881549
  N        15.8834957791        6.7472769616        8.9013557619
  C        16.1537742926        6.4799772927       10.2194739374
  N        15.9037003934        5.1922479349        3.0365101408
  C        16.1721723057        5.4655336875        1.7194335335
  N        15.8878584807       16.0102319060       13.8584967989
  C        16.1576890433       16.2782244580       12.5406944590
 Zn        14.5963555862       14.7213495648       14.7213473021
 Cl        13.3677242323       13.4881062521       13.4881051883
 Zn        14.6133746316        3.8953731221        3.8953732074
 Cl        13.3862574056        2.6601815270        2.6601785268
 Zn         3.7891250335       14.7174380374        3.9074071870
 Cl         2.5631235965       13.4740234831        2.6799388205
 Zn         3.7891256071        3.9074115606       14.7174401989
 Cl         2.5631230465        2.6799423766       13.4740256544
 Zn         7.9392121588        8.0276679903       14.7441885762
 Cl         9.2220478859        9.2566904000       13.5639916625
 Zn         7.9107721981       18.8783504296        3.8940873047
 Cl         9.1209145127       20.1215474109        2.6503499613
 Zn        18.7383085923        8.0491552241        3.9047714093
 Cl        19.9736905383        9.2860065346        2.6797838526
 Zn        18.7431953506       18.8517870356       14.7150590768
 Cl        19.9768264046       20.0760835904       13.4749884482
 Zn         7.9392142134       14.7441883303        8.0276681378
 Cl         9.2220489338       13.5639842931        9.2566867265
 Zn         7.9107698888        3.8940888854       18.8783507469
 Cl         9.1209119445        2.6503557135       20.1215491534
 Zn        18.7431960979       14.7150557929       18.8517819860
 Cl        19.9768235730       13.4749877641       20.0760808813
 Zn        18.7383083386        3.9047683725        8.0491559735
 Cl        19.9736904269        2.6797801589        9.2860086858
 Zn        14.5943262008        8.0358603449        8.0358614879
 Cl        13.3619614250        9.2676213622        9.2676217080
 Zn        14.6145078355       18.8652819719       18.8652845762
 Cl        13.3849811503       20.0989304090       20.0989321266
 Zn         3.7846521727        8.0507576297       18.8612393355
 Cl         2.5514261742        9.2843041537       20.0913833940
 Zn         3.7846536523       18.8612391342        8.0507566699
 Cl         2.5514213878       20.0913821919        9.2843047471
 Zn        14.5957132138       14.7210810826        8.0383395083
 Cl        13.3651794562       13.4882324113        9.2702928760
 Zn        14.6134210509        3.8974620768       18.8663095687
 Cl        13.3841303135        2.6613883920       20.0980257562
 Zn         3.7887487318       14.7195189209       18.8626139860
 Cl         2.5591325450       13.4826009864       20.0930861800
 Zn         3.7850394899        3.9073088437        8.0521181202
 Cl         2.5549819559        2.6805172138        9.2920068869
 Zn         7.9410312222        8.0190879479        8.0190870249
 Cl         9.2279010770        9.2221303292        9.2221325322
 Zn         7.9154931454       18.8754182783       18.8754176528
 Cl         9.1327290892       20.1153053486       20.1152968573
 Zn        18.7393307233        8.0498070632       18.8506065599
 Cl        19.9740718834        9.2856784466       20.0779408081
 Zn        18.7393357030       18.8506039229        8.0498088771
 Cl        19.9740745549       20.0779410612        9.2856814840
 Zn        14.5957118453        8.0383386451       14.7210820186
 Cl        13.3651778118        9.2702926710       13.4882344594
 Zn        14.6134235081       18.8663083790        3.8974642367
 Cl        13.3841331753       20.0980282718        2.6613926545
 Zn         3.7850411167        8.0521208163        3.9073087120
 Cl         2.5549848326        9.2920088240        2.6805175655
 Zn         3.7887466728       18.8626164285       14.7195142149
 Cl         2.5591359439       20.0930896336       13.4825927971
 Zn         7.9372582019       14.7361416885       14.7361424202
 Cl         9.2167938775       13.5302282559       13.5302236907
 Zn         7.9060562892        3.8895825805        3.8895824977
 Cl         9.1070591169        2.6415196348        2.6415202145
 Zn        18.7413589847       14.7149712325        3.9048015353
 Cl        19.9758369987       13.4748227965        2.6819981754
 Zn        18.7413550895        3.9048011404       14.7149700811
 Cl        19.9758346086        2.6819988014       13.4748200375
 Zn         5.8511289025        5.9674330827       16.7974792702
 Zn        16.6709032429       16.7841254242       16.7841253671
 Zn        16.6696520846        5.9669528879        5.9669550785
 Zn         5.8511327783       16.7974752669        5.9674260876
 Zn         5.8488298164        5.9646472949        5.9646440546
 Zn        16.6700162597       16.7835130678        5.9680597622
 Zn         5.8536806623       16.7956513853       16.7956346278
 Zn        16.6700143111        5.9680592931       16.7835123480
  N         3.6694595065        5.9769371202       16.7898451734
  N        14.4882419174        5.9639702177        5.9639681724
  N        18.8621214230       16.7832761134       16.7832811406
  N         8.0406418078       16.8132103580        5.9545476527
  N        18.8570909361        5.9778482750        5.9778362358
  N         8.0406332110        5.9545625485       16.8131995081
  N         3.6694566974       16.7898170687        5.9769078520
  N        14.4904159106       16.7936468888       16.7936471515
  N        16.6783886350        3.7839473781        5.9722051629
  N        16.6686599670       14.6041931654       16.7855443918
  N        16.6796361423       18.9749674879       16.7871090633
  N        16.6634624093        8.1554155417        5.9709673911
  N         5.8476411310       18.9801506534        5.9752692092
  N         5.8592642230        8.1581743968       16.7956524730
  N         5.8511639440        3.7883172684       16.7924808261
  N         5.8646618308       14.6077834716        5.9776029492
  N         5.8511807672       16.7924868548        3.7883072572
  N         5.8646685771        5.9776276006       14.6077891233
  N        16.6796219423       16.7871225183       18.9749652389
  N        16.6634612448        5.9709698331        8.1554145729
  N         5.8476323944        5.9752793851       18.9801448404
  N         5.8592775561       16.7956436187        8.1581777171
  N        16.6784269416        5.9722419141        3.7839470265
  N        16.6686726899       16.7855578719       14.6041927610
  N         5.8446962581        3.7871542635        5.9742112232
  N         5.8622190427       14.6082808776       16.7925529691
  N        16.6788334649       18.9744411409        5.9738726461
  N        16.6658836271        8.1562982246       16.7854846783
  N         5.8535654681       18.9805145616       16.7930607230
  N         5.8623513971        8.1572332358        5.9726081900
  N        16.6780347645        3.7847345892       16.7876009314
  N        16.6666107961       14.6035568626        5.9726664791
  N         3.6720620199       16.7922417669       16.7921948609
  N        14.4893411997       16.7938093437        5.9661720531
  N        18.8594387164       16.7823295561        5.9773323182
  N         8.0415983060       16.8095867160       16.8095841008
  N        18.8594395900        5.9773487980       16.7823464643
  N         8.0396745885        5.9490407331        5.9490375979
  N         3.6671172603        5.9786184227        5.9785734249
  N        14.4893364339        5.9661828127       16.7938012739
  N        16.6788265766        5.9738703274       18.9744421613
  N        16.6658670863       16.7854676984        8.1562965036
  N        16.6780126106       16.7876252815        3.7847315317
  N        16.6665851459        5.9726885013       14.6035566533
  N         5.8446926425        5.9742200204        3.7871479758
  N         5.8622132936       16.7925639788       14.6082810850
  N         5.8535950151       16.7930936662       18.9805078364
  N         5.8623369619        5.9726063085        8.1572328352
  C        11.2607925165       15.7446845328       15.7446843750
  H        11.2536924705       14.9690933290       14.9690924687
  C        11.2693852115        4.8960004539        4.8960061104
  H        11.2759642880        4.1205250181        4.1205282504
  C         0.4457778518       15.7250722718        4.9216088503
  H         0.4466893194       14.9488329667        4.1467776130
  C         0.4457735434        4.9216128685       15.7250747363
  H         0.4466907504        4.1467832696       14.9488301313
  C        11.2599926926        7.0151059743       15.7444493546
  H        11.2526969134        7.7903070506       14.9684441361
  C        11.2705989079       17.8642042006        4.9008940932
  H        11.2769885472       18.6405582226        4.1262872141
  C         0.4422626828        7.0399619942        4.9235505908
  H         0.4423146206        7.8157770597        4.1482763842
  C         0.4473130019       17.8442393986       15.7276085904
  H         0.4472990480       18.6191605082       14.9514243614
  C        11.2599892487       15.7444500030        7.0151050155
  H        11.2526977678       14.9684425983        7.7903050037
  C        11.2706002618        4.9008947540       17.8642024034
  H        11.2769864773        4.1262875714       18.6405578758
  C         0.4473204712       15.7276106606       17.8442327783
  H         0.4473034819       14.9514252518       18.6191520300
  C         0.4422677242        4.9235529039        7.0399576292
  H         0.4423160849        4.1482756092        7.8157742533
  C        11.2591244338        7.0131236640        7.0131281820
  H        11.2516628763        7.7887283776        7.7887299523
  C        11.2717436589       17.8615458703       17.8615468497
  H        11.2780871753       18.6370412604       18.6370427212
  C         0.4434936439        7.0379031296       17.8418305741
  H         0.4426510378        7.8136624805       18.6171925195
  C         0.4435022210       17.8418227493        7.0379055625
  H         0.4426570380       18.6171848162        7.8136684123
  C        15.6044435763       11.3809742932       15.7290614719
  H        14.8266614764       11.3816741909       14.9556439643
  C        15.6239719290        0.5590617104        4.9135977082
  H        14.8514655014        0.5588894350        4.1349913966
  C         4.8013205537       11.3837740427        4.9255427909
  H         4.0239275001       11.3849441530        4.1517684044
  C         4.8036503809        0.5640414485       15.7230792672
  H         4.0315632122        0.5634693541       14.9441588885
  C        15.6022864948       11.3799732699        7.0293959728
  H        14.8245010383       11.3805144909        7.8028723970
  C        15.6238113651        0.5596741557       17.8465680064
  H        14.8506379858        0.5594485033       18.6244794696
  C         4.7997307680       11.3843151651       17.8465217530
  H         4.0227211918       11.3852151634       18.6206709082
  C         4.7970991165        0.5635141028        7.0451549808
  H         4.0251256479        0.5630985364        7.8241843166
  C         6.9226838328       11.3822565289       15.7361422287
  H         7.7024784178       11.3807694880       14.9649846500
  C         6.9034638969        0.5642177329        4.9167104879
  H         7.6744049707        0.5648674676        4.1363212694
  C        17.7259744541       11.3794233286        4.9185654545
  H        18.5041021002       11.3789733492        4.1456500548
  C        17.7326237118        0.5603875733       15.7219701419
  H        18.5050122036        0.5611803361       14.9432471071
  C         6.9251837370       11.3812296774        7.0347346178
  H         7.7047784581       11.3793987309        7.8059905160
  C         6.9107500109        0.5651381251       17.8504087124
  H         7.6823829621        0.5660390021       18.6300817242
  C        17.7291529601       11.3799792494       17.8390805879
  H        18.5076523475       11.3793590294       18.6116993639
  C        17.7315451549        0.5597631463        7.0395874088
  H        18.5036680736        0.5604896872        7.8185463330
  C        15.6044466245       15.7290608518       11.3809789538
  H        14.8266645908       14.9556435369       11.3816718656
  C        15.6239756245        4.9135961898        0.5590687729
  H        14.8514699484        4.1349870701        0.5588904926
  C         4.8036502278       15.7230868072        0.5640398875
  H         4.0315652914       14.9441641713        0.5634644918
  C         4.8013317484        4.9255319880       11.3837724306
  H         4.0239303998        4.1517643194       11.3849417022
  C         6.9226829116       15.7361397261       11.3822532611
  H         7.7024788014       14.9649843032       11.3807714984
  C         6.9034606288        4.9167103176        0.5642211335
  H         7.6744030751        4.1363218089        0.5648658466
  C        17.7326256076       15.7219738421        0.5603882303
  H        18.5050151008       14.9432507062        0.5611804720
  C        17.7259732338        4.9185674737       11.3794269560
  H        18.5041027975        4.1456508620       11.3789736067
  C        15.6022856070        7.0293986206       11.3799705993
  H        14.8245014273        7.8028751806       11.3805147427
  C        15.6238132781       17.8465713665        0.5596719946
  H        14.8506419345       18.6244818786        0.5594457230
  C         4.7970951751        7.0451540366        0.5635194533
  H         4.0251230827        7.8241829303        0.5630999958
  C         4.7997277056       17.8465190169       11.3843063737
  H         4.0227177354       18.6206703179       11.3852123623
  C         6.9251975311        7.0347195917       11.3812214166
  H         7.7047881407        7.8059802275       11.3793977780
  C         6.9107503596       17.8504161575        0.5651422318
  H         7.6823846109       18.6300852875        0.5660423013
  C        17.7315436769        7.0395911048        0.5597585382
  H        18.5036624795        7.8185500702        0.5604918113
  C        17.7291564161       17.8390797292       11.3799765328
  H        18.5076574714       18.6116989840       11.3793609532
 Kr        11.1358574409       11.3768157622       11.3768151039
