     409
 i =      96, E =    -5186.5872101337
  N         2.8796009538        5.1995625615       16.0071341878
  C         1.5617256951        5.4708401585       16.2758370761
  N        13.6901001429        5.1772846303        5.1772856023
  C        12.3727889008        5.4482559180        5.4482573575
  N        19.5667640208       17.5653843237       16.0098538155
  C        20.8847624006       17.2947578034       16.2787817130
  N         8.7407523350       17.5753226456        5.1933041613
  C        10.0593187809       17.3072630645        5.4600565923
  N        19.5566683333        5.2023383342        6.7585931292
  C        20.8748029768        5.4735023876        6.4896504125
  N         8.7407513488        5.1933074195       17.5753195469
  C        10.0593112067        5.4600579560       17.3072646652
  N         2.8797101378       17.5618722324        6.7565747294
  C         1.5618513971       17.2914145146        6.4872045842
  N        13.7020585150       17.5777652111       17.5777665242
  C        12.3846208487       17.3071989042       17.3072006144
  N        15.8561290646        3.0386288152        5.1944373796
  C        16.1250396862        1.7217718034        5.4683395076
  N        15.8480164187       13.8595402359       16.0053833625
  C        16.1201150707       12.5423230498       16.2723212009
  N        15.8597360588       19.7243983311       17.5674658643
  C        16.1272238832       21.0418920010       17.2938945556
  N        15.8318473679        8.9033363788        6.7582417479
  C        16.1056701034       10.2209825474        6.4937301432
  N         6.5842875892       19.7246894061        5.1999364014
  C         6.3152099924       21.0418760374        5.4727889182
  N         6.6002794892        8.9053528517       16.0126313407
  C         6.3313843008       10.2231541468       16.2826429094
  N         6.5890230942        3.0417540104       17.5705824000
  C         6.3219367775        1.7240429520       17.2979712167
  N         6.5995351355       13.8599402430        6.7520973375
  C         6.3291484799       12.5422577989        6.4826759661
  N         5.0368733350       16.0107636001        3.0413872734
  C         5.3083905366       16.2795400831        1.7236681557
  N         5.0404934661        5.1988127881       13.8599796508
  C         5.3111024671        5.4686353194       12.5426946237
  N        17.4094314901       16.0050710231       19.7232958151
  C        17.1390809295       16.2736419560       21.0416655090
  N        17.3930993677        5.2085007647        8.9039386875
  C        17.1254530645        5.4816116243       10.2212403609
  N         5.0323079907        6.7597059853       19.7221248692
  C         5.3018638136        6.4914960435       21.0405746142
  N         5.0401295087       17.5637090670        8.9062505257
  C         5.3126841966       17.2958384734       10.2235027700
  N        17.4040276315        6.7586400419        3.0414003622
  C        17.1357465888        6.4896515142        1.7229302799
  N        17.4079530933       17.5570520257       13.8595959897
  C        17.1387641417       17.2856797818       12.5421703480
  N         5.0275022154        3.0400295384        6.7588486521
  C         5.2996280739        1.7221242611        6.4910310184
  N         5.0428328862       13.8608109962       17.5668407079
  C         5.3137827608       12.5434507159       17.2972546418
  N        17.4075358733       19.7228241842        6.7587067590
  C        17.1374424779       21.0412178912        6.4898374362
  N        17.4046898666        8.9047368005       17.5586943555
  C        17.1371372957       10.2222661987       17.2864510209
  N         5.0396135743       19.7241989585       16.0105701244
  C         5.3096185957       21.0423267408       16.2793986363
  N         5.0369110593        8.9057523230        5.1991630735
  C         5.3095613872       10.2227243928        5.4686621297
  N        17.4061244932        3.0419645987       16.0042084844
  C        17.1374827397        1.7235644288       16.2733821157
  N        17.3986808349       13.8584037540        5.2110278548
  C        17.1284781420       12.5411571381        5.4826018700
  N         2.8840125128       16.0096227103       17.5654016661
  C         1.5661243423       16.2785662863       17.2945376132
  N        13.6996869171       16.0250487780        6.7399188071
  C        12.3819809582       16.2940241169        6.4711176759
  N        19.5619557356       16.0069777915        5.2005709814
  C        20.8801179778       16.2757829173        5.4711102807
  N         8.7498169961       16.0166836801       16.0166850525
  C        10.0663223878       16.2885089473       16.2885098923
  N        19.5624045677        6.7557198234       17.5634312539
  C        20.8803533449        6.4868334193       17.2921436686
  N         8.7406138285        6.7433014957        6.7432990722
  C        10.0564625350        6.4695975465        6.4695955976
  N         2.8746270368        6.7580914445        5.2016784923
  C         1.5567492809        6.4892803184        5.4732378534
  N        13.6996831517        6.7399127315       16.0250592423
  C        12.3819842129        6.4711191448       16.2940271084
  N        15.8587907271        5.1954134649       19.7242192015
  C        16.1263359560        5.4688390530       21.0414627080
  N        15.8451811363       16.0073831429        8.9050964893
  C        16.1185548307       16.2731985601       10.2223900638
  N        15.8570496421       17.5673874310        3.0399669771
  C        16.1259481719       17.2939031834        1.7227934373
  N        15.8382241608        6.7623451756       13.8591957192
  C        16.1091216031        6.4952640797       12.5416642443
  N         6.5777148662        5.1976091471        3.0398847276
  C         6.3122619095        5.4717670929        1.7224057547
  N         6.6019705824       16.0140073398       13.8609127892
  C         6.3320057235       16.2834477193       12.5434071645
  N         6.5924595270       17.5695343219       19.7253742055
  C         6.3235114671       17.2975405036       21.0429528174
  N         6.5969042921        6.7507957521        8.9033220348
  C         6.3280615499        6.4821357588       10.2215019832
  N        19.5624085353       17.5634257707        6.7557185519
  C        20.8803509034       17.2921393100        6.4868359784
  N         8.7457934978       17.5726850415       17.5726898619
  C        10.0640592511       17.3044783987       17.3044820931
  N         2.8746240315        5.2016836598        6.7580868581
  C         1.5567565675        5.4732395567        6.4892791334
  N        13.6972421286        5.1848279914       17.5814176604
  C        12.3799824194        5.4556088617       17.3104765749
  N         2.8840083747       17.5653929396       16.0096294798
  C         1.5661316629       17.2945361696       16.2785664306
  N        13.6972434189       17.5814075583        5.1848368009
  C        12.3799935196       17.3104745529        5.4556087116
  N        19.5619550509        5.2005798419       16.0069784576
  C        20.8801107696        5.4711118953       16.2757829483
  N         8.7328780828        5.1875209858        5.1875250177
  C        10.0519959358        5.4536814709        5.4536836307
  N         6.5924671611       19.7253742937       17.5695382805
  C         6.3235100774       21.0429586151       17.2975409162
  N         6.5968999114        8.9033228289        6.7507979720
  C         6.3280584516       10.2214996129        6.4821376818
  N         6.5777127861        3.0398848179        5.1976023904
  C         6.3122601320        1.7224010798        5.4717642363
  N         6.6019619999       13.8609131518       16.0140120492
  C         6.3320050147       12.5434150120       16.2834493056
  N        15.8570404020        3.0399690252       17.5673933813
  C        16.1259415401        1.7227873564       17.2938994601
  N        15.8382228026       13.8591959145        6.7623428095
  C        16.1091241275       12.5416675480        6.4952626366
  N        15.8587950611       19.7242203799        5.1954201613
  C        16.1263358383       21.0414594552        5.4688432706
  N        15.8451827320        8.9050983710       16.0073812624
  C        16.1185515509       10.2223899958       16.2731976631
  N        17.4075287554        6.7587041026       19.7228241848
  C        17.1374396697        6.4898359170       21.0412172248
  N        17.4046892659       17.5586970394        8.9047383717
  C        17.1371401029       17.2864516925       10.2222642214
  N         5.0274993309        6.7588505571        3.0400323850
  C         5.2996266045        6.4910305330        1.7221214785
  N         5.0428383578       17.5668319871       13.8608072796
  C         5.3137810768       17.2972511678       12.5434568130
  N        17.4061307867       16.0042004940        3.0419656305
  C        17.1374881704       16.2733841165        1.7235592288
  N        17.3986817651        5.2110283421       13.8584021809
  C        17.1284763272        5.4826018773       12.5411556372
  N         5.0396074151       16.0105632204       19.7241966285
  C         5.3096209526       16.2793973407       21.0423345052
  N         5.0369120535        5.1991653466        8.9057547046
  C         5.3095619080        5.4686632818       10.2227209223
  N        17.4094320001       19.7232969389       16.0050674706
  C        17.1390774791       21.0416685436       16.2736390022
  N        17.3930908227        8.9039398856        5.2085035150
  C        17.1254470154       10.2212360840        5.4816048100
  N         5.0368640739        3.0413898767       16.0107593494
  C         5.3083859099        1.7236629037       16.2795418196
  N         5.0404993387       13.8599797242        5.1988158949
  C         5.3111024419       12.5426977962        5.4686338509
  N        17.4040331684        3.0414017255        6.7586428144
  C        17.1357476015        1.7229298306        6.4896549546
  N        17.4079524444       13.8595955805       17.5570505056
  C        17.1387645322       12.5421700327       17.2856756654
  N         5.0323061490       19.7221225462        6.7597142651
  C         5.3018670179       21.0405781845        6.4914979600
  N         5.0401384566        8.9062536626       17.5637031593
  C         5.3126861961       10.2234956967       17.2958416235
  N        19.5566691478        6.7585839579        5.2023446166
  C        20.8747962895        6.4896506913        5.4735005839
  N         8.7461824957        6.7477550567       16.0178326957
  C        10.0625206728        6.4751494723       16.2904714425
  N         2.8797052414        6.7565653613       17.5618670070
  C         1.5618558031        6.4872022818       17.2914159093
  N        13.6932914056        6.7323185803        6.7323141421
  C        12.3755271666        6.4641194516        6.4641172219
  N         2.8796000850       16.0071440756        5.1995669066
  C         1.5617326718       16.2758395490        5.4708387638
  N        13.7032210088       16.0219024563       16.0218975287
  C        12.3857699885       16.2911820730       16.2911799480
  N        19.5667646119       16.0098571468       17.5653797892
  C        20.8847595654       16.2787825432       17.2947570681
  N         8.7461862105       16.0178335919        6.7477486700
  C        10.0625168670       16.2904682078        6.4751465188
  N         6.5890335299       17.5705851062        3.0417553036
  C         6.3219423226       17.2979695532        1.7240367231
  N         6.5995327837        6.7520922882       13.8599416346
  C         6.3291500225        6.4826742590       12.5422600016
  N         6.5842915202        5.1999337084       19.7246905872
  C         6.3152100187        5.4727894986       21.0418794796
  N         6.6002726990       16.0126376316        8.9053535145
  C         6.3313833151       16.2826412671       10.2231459376
  N        15.8597381931       17.5674714145       19.7243974459
  C        16.1272283357       17.2938993208       21.0418935359
  N        15.8318518488        6.7582401311        8.9033350181
  C        16.1056750888        6.4937367048       10.2209809592
  N        15.8561297108        5.1944300142        3.0386301569
  C        16.1250419033        5.4683321997        1.7217723311
  N        15.8480171697       16.0053843042       13.8595378418
  C        16.1201153239       16.2723253910       12.5423213302
 Zn        14.5499172184       14.7239002675       14.7238991168
 Cl        13.2510698158       13.5261073941       13.5261104323
 Zn        14.5645185159        3.8926499872        3.8926495758
 Cl        13.3569646799        2.6482058977        2.6482120806
 Zn         3.7441773823       14.7183618829        3.9046081542
 Cl         2.5138830299       13.4812189100        2.6751835614
 Zn         3.7441741920        3.9046098166       14.7183626916
 Cl         2.5138858778        2.6751853622       13.4812214554
 Zn         7.8940045126        8.0445985666       14.7211311337
 Cl         9.1220721737        9.2784882929       13.4868567580
 Zn         7.8765813834       18.8695000400        3.9030513391
 Cl         9.1093905766       20.1038468521        2.6731802126
 Zn        18.6884091047        8.0523032051        3.9113893204
 Cl        19.9145555154        9.3002443751        2.6884948800
 Zn        18.7027742275       18.8533122412       14.7169210981
 Cl        19.9278643000       20.0793881544       13.4708614361
 Zn         7.8940055744       14.7211316914        8.0445974597
 Cl         9.1220718095       13.4868522305        9.2784880896
 Zn         7.8765788006        3.9030522279       18.8695000795
 Cl         9.1093873254        2.6731803529       20.1038501576
 Zn        18.7027735505       14.7169228606       18.8533087878
 Cl        19.9278643065       13.4708649286       20.0793882595
 Zn        18.6884094869        3.9113918495        8.0523020182
 Cl        19.9145559516        2.6885048684        9.3002436224
 Zn        14.5318108671        8.0301678588        8.0301651682
 Cl        13.1986039171        9.2100024029        9.2100011289
 Zn        14.5694435993       18.8688419648       18.8688407654
 Cl        13.3466365032       20.1054716010       20.1054714713
 Zn         3.7410689404        8.0511899367       18.8524085067
 Cl         2.5076303495        9.2887794231       20.0787561910
 Zn         3.7410681222       18.8524045646        8.0511893668
 Cl         2.5076361756       20.0787507493        9.2887774536
 Zn        14.5442965432       14.7292239407        8.0425639259
 Cl        13.2258469456       13.5578425720        9.2454872028
 Zn        14.5665890470        3.8963237869       18.8706531060
 Cl        13.3504820753        2.6514875983       20.1058949245
 Zn         3.7463128133       14.7193654846       18.8596705241
 Cl         2.5144561336       13.4818558967       20.0872939191
 Zn         3.7380886565        3.9072521380        8.0514745026
 Cl         2.5048340062        2.6820257843        9.2897625046
 Zn         7.8920882912        8.0409473790        8.0409478270
 Cl         9.1192542042        9.2755470904        9.2755436341
 Zn         7.8841686849       18.8659311398       18.8659309300
 Cl         9.1200608519       20.0963309871       20.0963278001
 Zn        18.6995068696        8.0497534995       18.8533251165
 Cl        19.9249830433        9.2910050274       20.0836200377
 Zn        18.6995107903       18.8533248486        8.0497497096
 Cl        19.9249861897       20.0836207583        9.2910033547
 Zn        14.5442922792        8.0425641282       14.7292232901
 Cl        13.2258433879        9.2454908998       13.5578415845
 Zn        14.5665907132       18.8706514277        3.8963252435
 Cl        13.3504836090       20.1058976189        2.6514847680
 Zn         3.7380879849        8.0514764149        3.9072513592
 Cl         2.5048323876        9.2897596571        2.6820274252
 Zn         3.7463162564       18.8596706630       14.7193647882
 Cl         2.5144548043       20.0872957124       13.4818504686
 Zn         7.8952566888       14.7210439896       14.7210446203
 Cl         9.1239461273       13.4871866427       13.4871868733
 Zn         7.8625064702        3.8980540362        3.8980537851
 Cl         9.0920484938        2.6637181433        2.6637188577
 Zn        18.6940984720       14.7144008743        3.9119280276
 Cl        19.9190283350       13.4623264526        2.6919143041
 Zn        18.6940971461        3.9119313061       14.7144022159
 Cl        19.9190261616        2.6919108423       13.4623289370
 Zn         5.8133210811        5.9728950571       16.7856785765
 Zn        16.6273870329       16.7882323148       16.7882300228
 Zn        16.6181053181        5.9661030849        5.9661103641
 Zn         5.8133230780       16.7856849702        5.9728998054
 Zn         5.8028662311        5.9715583811        5.9715558543
 Zn        16.6224612703       16.7892237661        5.9688028662
 Zn         5.8206093944       16.7872038678       16.7872079710
 Zn        16.6224561430        5.9687987116       16.7892288324
  N         3.6262335673        5.9775760487       16.7849933966
  N        14.4381627774        5.9546396732        5.9546383762
  N        18.8198536680       16.7879602962       16.7879618438
  N         7.9969952108       16.7953542319        5.9720020895
  N        18.8100947377        5.9798416257        5.9798345921
  N         7.9969920079        5.9719957488       16.7953614775
  N         3.6262357607       16.7849844629        5.9775663843
  N        14.4488348549       16.7997744411       16.7997720722
  N        16.6299827566        3.7862704840        5.9749461792
  N        16.6270439567       14.6060722777       16.7826477951
  N        16.6353677911       18.9772974233       16.7878104684
  N        16.6109505114        8.1567815664        5.9807636563
  N         5.8081443187       18.9767044464        5.9783713854
  N         5.8190452622        8.1591712457       16.7876036691
  N         5.8117582715        3.7880950762       16.7917396230
  N         5.8199580912       14.6062120553        5.9753267557
  N         5.8117549589       16.7917306791        3.7880947860
  N         5.8199583858        5.9753276206       14.6062128237
  N        16.6353708413       16.7878112970       18.9772972493
  N        16.6109436315        5.9807620205        8.1567780296
  N         5.8081390649        5.9783742023       18.9767072485
  N         5.8190551625       16.7875937780        8.1591692445
  N        16.6299844108        5.9749458712        3.7862707978
  N        16.6270467550       16.7826459652       14.6060715334
  N         5.8008574839        3.7865517772        5.9762211837
  N         5.8221920912       14.6071819166       16.7902823012
  N        16.6337627674       18.9770083693        5.9755089356
  N        16.6232722546        8.1580472405       16.7850316570
  N         5.8157236560       18.9780677700       16.7909619216
  N         5.8158217584        8.1579630904        5.9748528277
  N        16.6315834443        3.7872615124       16.7871397802
  N        16.6182323022       14.6053633888        5.9852108283
  N         3.6307105547       16.7880277639       16.7880150138
  N        14.4446362526       16.8033582954        5.9622082405
  N        18.8153827329       16.7858007120        5.9777106363
  N         8.0014385032       16.7936463986       16.7936503618
  N        18.8153808734        5.9777050661       16.7857960786
  N         7.9901336133        5.9673469830        5.9673482483
  N         3.6208663296        5.9791210850        5.9791302482
  N        14.4446347344        5.9622148995       16.8033524172
  N        16.6337613677        5.9755118759       18.9770075757
  N        16.6232819429       16.7850328541        8.1580471834
  N        16.6315780826       16.7871452933        3.7872609748
  N        16.6182228180        5.9852002516       14.6053651241
  N         5.8008654392        5.9762184514        3.7865527484
  N         5.8221855860       16.7902908130       14.6071802592
  N         5.8157291943       16.7909712335       18.9780666182
  N         5.8158182275        5.9748464739        8.1579641707
  C        11.2271336451       15.7392207923       15.7392179490
  H        11.2307569427       14.9635928755       14.9635864821
  C        11.2099286924        4.9003758270        4.9003794191
  H        11.2055563169        4.1249262516        4.1249322286
  C         0.4008891805       15.7250526323        4.9213424317
  H         0.4013028633       14.9487034408        4.1466442001
  C         0.4008850245        4.9213472110       15.7250494309
  H         0.4013014413        4.1466520961       14.9486961815
  C        11.2238152151        7.0232705340       15.7412748505
  H        11.2288904874        7.7986771596       14.9654475668
  C        11.2178796132       17.8596289696        4.9074785206
  H        11.2145143274       18.6353472624        4.1322137332
  C         0.3958297623        7.0399811966        4.9237000327
  H         0.3966414082        7.8158826033        4.1485222483
  C         0.4054475598       17.8443244441       15.7277996251
  H         0.4057655775       18.6189621074       14.9513336159
  C        11.2238150122       15.7412698466        7.0232676246
  H        11.2288929889       14.9654416134        7.7986721604
  C        11.2178742320        4.9074793287       17.8596304966
  H        11.2145126989        4.1322142990       18.6353486152
  C         0.4054452851       15.7278011324       17.8443249924
  H         0.4057657449       14.9513359698       18.6189641284
  C         0.3958322822        4.9237024812        7.0399807903
  H         0.3966387329        4.1485257236        7.8158826922
  C        11.2183029797        7.0174698383        7.0174653695
  H        11.2252623175        7.7931119335        7.7931043893
  C        11.2230800249       17.8563708624       17.8563751974
  H        11.2205638394       18.6318696702       18.6318757571
  C         0.4012069825        7.0376618124       17.8416334078
  H         0.4019452375        7.8136347303       18.6167950048
  C         0.4012064722       17.8416271365        7.0376655937
  H         0.4019473556       18.6167858486        7.8136427276
  C        15.5674216663       11.3824823448       15.7233193929
  H        14.7867412807       11.3825894821       14.9530790965
  C        15.5777528972        0.5612170027        4.9157831178
  H        14.8065112755        0.5612165793        4.1358366922
  C         4.7587703940       11.3830407044        4.9193973043
  H         3.9814529446       11.3835202093        4.1456786115
  C         4.7606592825        0.5627533178       15.7272574417
  H         3.9873436277        0.5627325871       14.9495075460
  C        15.5546954215       11.3817323850        7.0429452583
  H        14.7727044618       11.3823570585        7.8117165371
  C        15.5781602715        0.5620499907       17.8459642408
  H        14.8057747322        0.5621366599       18.6247483688
  C         4.7615536762       11.3834071901       17.8459035046
  H         3.9839732331       11.3832557432       18.6194050136
  C         4.7527860176        0.5609657049        7.0438399848
  H         3.9795695877        0.5607390504        7.8216112481
  C         6.8838342493       11.3832734724       15.7338947333
  H         7.6609404097       11.3833137165       14.9597895411
  C         6.8633032562        0.5625887717        4.9210140795
  H         7.6369155713        0.5635091783        4.1434325539
  C        17.6795326440       11.3807219087        4.9338047616
  H        18.4566551926       11.3799879174        4.1597567866
  C        17.6856711879        0.5629219805       15.7203669859
  H        18.4576703671        0.5634352270       14.9413347997
  C         6.8804467497       11.3814770612        7.0317687971
  H         7.6574234080       11.3809258525        7.8060420007
  C         6.8724104513        0.5637597417       17.8486882612
  H         7.6466671578        0.5642945640       18.6255497153
  C        17.6901069603       11.3820031764       17.8350148849
  H        18.4664056648       11.3817938381       18.6098841366
  C        17.6836734630        0.5624976112        7.0433169721
  H        18.4551691441        0.5631973912        7.8228443493
  C        15.5674227643       15.7233223739       11.3824811836
  H        14.7867453950       14.9530795385       11.3825878298
  C        15.5777574535        4.9157752147        0.5612189308
  H        14.8065187662        4.1358248411        0.5612160994
  C         4.7606630832       15.7272552088        0.5627570967
  H         3.9873477462       14.9495053964        0.5627321772
  C         4.7587684034        4.9193999649       11.3830381884
  H         3.9814489290        4.1456846475       11.3835200127
  C         6.8838346914       15.7338935617       11.3832703466
  H         7.6609419319       14.9597895524       11.3833130944
  C         6.8633060298        4.9210168521        0.5625897894
  H         7.6369200445        4.1434377326        0.5635088344
  C        17.6856757172       15.7203695505        0.5629192587
  H        18.4576750246       14.9413375235        0.5634332961
  C        17.6795360575        4.9338122491       11.3807234915
  H        18.4566564096        4.1597609815       11.3799872987
  C        15.5547006758        7.0429503534       11.3817316659
  H        14.7727056199        7.8117196575       11.3823558702
  C        15.5781669167       17.8459702916        0.5620517817
  H        14.8057832499       18.6247560574        0.5621369430
  C         4.7527808589        7.0438370865        0.5609639621
  H         3.9795611630        7.8216051113        0.5607410541
  C         4.7615506851       17.8458981821       11.3834102606
  H         3.9839682756       18.6193982318       11.3832531646
  C         6.8804503089        7.0317649464       11.3814772427
  H         7.6574296504        7.8060361972       11.3809254737
  C         6.8724137847       17.8486865663        0.5637576971
  H         7.6466709871       18.6255486963        0.5642946418
  C        17.6836712569        7.0433163690        0.5624987805
  H        18.4551648562        7.8228454349        0.5631978251
  C        17.6901072735       17.8350180347       11.3820029259
  H        18.4664083599       18.6098849733       11.3817938182
 Kr        15.4344469784       11.3342546030       11.3342540400
