     409
 i =      96, E =    -5186.5833260885
  N         3.0211269012        5.2061912483       16.0191442387
  C         1.7028845810        5.4775734516       16.2869430504
  N        13.8351117361        5.2036236408        5.2036258018
  C        12.5174697067        5.4741876977        5.4741940951
  N        19.7047279430       17.5726328848       16.0160591156
  C        21.0228877184       17.3016980619       16.2855362165
  N         8.8820192089       17.5754561992        5.2061511408
  C        10.1998232388       17.3041220425        5.4748784285
  N        19.6993590258        5.2035424794        6.7600216186
  C        21.0174319499        5.4765516945        6.4926901149
  N         8.8820132228        5.2061575319       17.5754484067
  C        10.1998194765        5.4748814704       17.3041154584
  N         3.0197442437       17.5755903756        6.7626878799
  C         1.7019530074       17.3031006849        6.4935873535
  N        13.8422755556       17.5732160602       17.5732157768
  C        12.5243096472       17.3035464529       17.3035466830
  N        15.9858944704        3.0465741064        5.2035719389
  C        16.2541599549        1.7288073523        5.4751769314
  N        15.9927101807       13.8646957350       16.0155844558
  C        16.2618046489       12.5473696839       16.2856648541
  N        15.9930660055       19.7297654927       17.5720318996
  C        16.2597029667       21.0477198321       17.2996454159
  N        15.9878100033        8.9106125966        6.7593060293
  C        16.2571445779       10.2278358077        6.4889046121
  N         6.7308961662       19.7340376332        5.2073227565
  C         6.4618773124       21.0518010379        5.4783081347
  N         6.7314883318        8.9136285430       16.0186059397
  C         6.4621044381       10.2309728588       16.2882917269
  N         6.7313073244        3.0505635279       17.5762868866
  C         6.4647857265        1.7326388114       17.3040428068
  N         6.7285839303       13.8675910810        6.7643260029
  C         6.4578765518       12.5504321748        6.4953801636
  N         5.1781426798       16.0185069562        3.0498210514
  C         5.4500983573       16.2868819859        1.7321628498
  N         5.1750114189        5.2073681812       13.8682476315
  C         5.4429787808        5.4784826453       12.5507559733
  N        17.5465786397       16.0145123468       19.7302957210
  C        17.2745864506       16.2825774712       21.0480738123
  N        17.5420300108        5.2025467347        8.9101218388
  C        17.2723927646        5.4722848072       10.2275550927
  N         5.1767700471        6.7642790330       19.7335803717
  C         5.4467381528        6.4951722709       21.0514684548
  N         5.1774873071       17.5757552171        8.9139213410
  C         5.4471398772       17.3052294826       10.2311873504
  N        17.5408955165        6.7597152915        3.0468616609
  C        17.2697971507        6.4914193611        1.7291267375
  N        17.5472207774       17.5720673610       13.8646134295
  C        17.2771978455       17.3021605671       12.5472311261
  N         5.1741929547        3.0499082044        6.7637857585
  C         5.4453167766        1.7322327847        6.4949371309
  N         5.1791658575       13.8682159008       17.5758358590
  C         5.4479706876       12.5507785986       17.3052935162
  N        17.5434197344       19.7306470413        6.7597106530
  C        17.2712130105       21.0483140223        6.4914520816
  N        17.5450286700        8.9100731649       17.5729560407
  C        17.2760977901       10.2275493236       17.3025503218
  N         5.1807442509       19.7334048971       16.0180500164
  C         5.4515406616       21.0512620003       16.2866641186
  N         5.1730898662        8.9139794667        5.2077581269
  C         5.4419382148       10.2313078043        5.4787636589
  N        17.5443172248        3.0469536366       16.0143353591
  C        17.2733169436        1.7290625499       16.2825065473
  N        17.5443500344       13.8645098989        5.2034103742
  C        17.2735717080       12.5471705409        5.4726453918
  N         3.0232347249       16.0196414515       17.5761622424
  C         1.7051931551       16.2872864255       17.3033846768
  N        13.8386033656       16.0164981135        6.7592808001
  C        12.5209912944       16.2867748878        6.4893891563
  N        19.7027683625       16.0159329844        5.2039790404
  C        21.0206924078       16.2852523016        5.4762582182
  N         8.8846273596       16.0186580594       16.0186564865
  C        10.2024429386       16.2883849317       16.2883851056
  N        19.7014543822        6.7597222642       17.5732459147
  C        21.0197674915        6.4920290012       17.3018107660
  N         8.8799154211        6.7619519945        6.7619524444
  C        10.1972709380        6.4913536999        6.4913603151
  N         3.0174280961        6.7636462457        5.2072865650
  C         1.6994442192        6.4945142753        5.4784285163
  N        13.8386038822        6.7592810716       16.0164976917
  C        12.5209852552        6.4893891600       16.2867721987
  N        15.9892002563        5.2028972989       19.7297163829
  C        16.2558254042        5.4748887960       21.0477652714
  N        15.9909726679       16.0160269738        8.9105956134
  C        16.2608841775       16.2858791348       10.2278263950
  N        15.9902087053       17.5713260761        3.0464180134
  C        16.2582531206       17.2993188956        1.7287106981
  N        15.9897085832        6.7597262318       13.8646982570
  C        16.2581322470        6.4891073762       12.5473604532
  N         6.7277552768        5.2065334576        3.0503864882
  C         6.4601821283        5.4780061703        1.7326094220
  N         6.7326079819       16.0185407691       13.8678121667
  C         6.4627451163       16.2882228136       12.5505143030
  N         6.7345791654       17.5755567450       19.7337427301
  C         6.4664898900       17.3037250394       21.0515716456
  N         6.7272265471        6.7645216859        8.9139671636
  C         6.4570597820        6.4955220585       10.2311715462
  N        19.7014552092       17.5732480516        6.7597277476
  C        21.0197756034       17.3018007482        6.4920281698
  N         8.8853251523       17.5750181675       17.5750169382
  C        10.2030011508       17.3044732358       17.3044733369
  N         3.0174283472        5.2072816786        6.7636517491
  C         1.6994429613        5.4784361429        6.4945067052
  N        13.8388692219        5.2030331399       17.5728086261
  C        12.5210615243        5.4734633801       17.3029944344
  N         3.0232341559       17.5761707877       16.0196334818
  C         1.7051910918       17.3033827833       16.2872886329
  N        13.8388709474       17.5728076324        5.2030346199
  C        12.5210669531       17.3029946577        5.4734660369
  N        19.7027652283        5.2039716359       16.0159292423
  C        21.0206906225        5.4762600948       16.2852635643
  N         8.8785197713        5.2057094996        5.2057110769
  C        10.1963971979        5.4753100793        5.4753171507
  N         6.7345769690       19.7337429211       17.5755511370
  C         6.4664944049       21.0515750048       17.3037236331
  N         6.7272244707        8.9139714415        6.7645268646
  C         6.4570366110       10.2311798062        6.4955379183
  N         6.7277510892        3.0503910837        5.2065370351
  C         6.4601860515        1.7326139400        5.4780048086
  N         6.7326150022       13.8678125542       16.0185380821
  C         6.4627538180       12.5505197026       16.2882354615
  N        15.9902081661        3.0464200231       17.5713245351
  C        16.2582481012        1.7287128019       17.2993214712
  N        15.9897089609       13.8646966512        6.7597287204
  C        16.2581403761       12.5473606515        6.4891069663
  N        15.9892052717       19.7297149453        5.2029009220
  C        16.2558241891       21.0477634306        5.4748886497
  N        15.9909680183        8.9105970549       16.0160239776
  C        16.2608828579       10.2278294218       16.2858809990
  N        17.5434170334        6.7597093573       19.7306485788
  C        17.2712162171        6.4914542737       21.0483146354
  N        17.5450309092       17.5729568881        8.9100709381
  C        17.2760966867       17.3025461745       10.2275481251
  N         5.1741980408        6.7637818011        3.0499062988
  C         5.4453117141        6.4949398492        1.7322298481
  N         5.1791598007       17.5758379847       13.8682137450
  C         5.4479620714       17.3052811116       12.5507707313
  N        17.5443161155       16.0143383895        3.0469486108
  C        17.2733214643       16.2825044641        1.7290649273
  N        17.5443516594        5.2034063465       13.8645136977
  C        17.2735647092        5.4726448432       12.5471663683
  N         5.1807457129       16.0180554740       19.7334058692
  C         5.4515361805       16.2866658075       21.0512567206
  N         5.1730907884        5.2077515343        8.9139748015
  C         5.4419624638        5.4787484047       10.2313002365
  N        17.5465799969       19.7302945535       16.0145105444
  C        17.2745825521       21.0480752034       16.2825800456
  N        17.5420280304        8.9101238628        5.2025487625
  C        17.2723994432       10.2275558653        5.4722835440
  N         5.1781362229        3.0498235251       16.0185005461
  C         5.4501035685        1.7321676830       16.2868770230
  N         5.1750130104       13.8682488398        5.2073716810
  C         5.4429540811       12.5507631203        5.4785019032
  N        17.5408978113        3.0468653378        6.7597194479
  C        17.2697935016        1.7291241743        6.4914187949
  N        17.5472188250       13.8646101806       17.5720641610
  C        17.2771992087       12.5472348839       17.3021626593
  N         5.1767702214       19.7335778317        6.7642803579
  C         5.4467420606       21.0514741402        6.4951648904
  N         5.1774906226        8.9139262992       17.5757495879
  C         5.4471502925       10.2311926352       17.3052463442
  N        19.6993589852        6.7600156294        5.2035482404
  C        21.0174287456        6.4926969851        5.4765448916
  N         8.8824186586        6.7612242717       16.0179319359
  C        10.1999980620        6.4903381227       16.2874353504
  N         3.0197424194        6.7626811657       17.5755846288
  C         1.7019502222        6.4935883749       17.3031117022
  N        13.8358519606        6.7598290234        6.7598313793
  C        12.5180902033        6.4902569081        6.4902632900
  N         3.0211290641       16.0191496353        5.2061973676
  C         1.7028907900       16.2869332643        5.4775736656
  N        13.8410082090       16.0169047606       16.0169053225
  C        12.5235578397       16.2874822003       16.2874829077
  N        19.7047298110       16.0160637796       17.5726271897
  C        21.0228851081       16.2855321544       17.3017016478
  N         8.8824172082       16.0179365109        6.7612209040
  C        10.2000056728       16.2874396370        6.4903372515
  N         6.7313160250       17.5762954149        3.0505551361
  C         6.4647825131       17.3040496455        1.7326343183
  N         6.7285824326        6.7643229444       13.8675901509
  C         6.4579031603        6.4953632272       12.5504291679
  N         6.7308937264        5.2073237624       19.7340350666
  C         6.4618723606        5.4783165493       21.0517996546
  N         6.7314856684       16.0186107797        8.9136226962
  C         6.4620921715       16.2882764771       10.2309678383
  N        15.9930637389       17.5720348258       19.7297658769
  C        16.2597058112       17.2996439015       21.0477210684
  N        15.9878127288        6.7593028753        8.9106111271
  C        16.2571395186        6.4889041626       10.2278328496
  N        15.9858923160        5.2035683489        3.0465716178
  C        16.2541635351        5.4751775047        1.7288071103
  N        15.9927123730       16.0155872435       13.8646973320
  C        16.2618032295       16.2856624673       12.5473689509
 Zn        14.7019688685       14.7225128003       14.7225114379
 Cl        13.4673014788       13.4912277326       13.4912276980
 Zn        14.6981423449        3.9086639390        3.9086646188
 Cl        13.4578805022        2.6801713716        2.6801720612
 Zn         3.8872899553       14.7266799685        3.9110235894
 Cl         2.6535663603       13.4914040071        2.6827088337
 Zn         3.8872884596        3.9110278175       14.7266789831
 Cl         2.6535605678        2.6827052158       13.4914009970
 Zn         8.0210129377        8.0555213076       14.7238941502
 Cl         9.2544580275        9.2869991223       13.4915756391
 Zn         8.0182293206       18.8713108635        3.9129666298
 Cl         9.2576766984       20.0991855010        2.6829157793
 Zn        18.8326690907        8.0512400597        3.9079945035
 Cl        20.0639339772        9.2867877524        2.6776319028
 Zn        18.8370653265       18.8672699638       14.7236101442
 Cl        20.0696910320       20.0944167294       13.4859842369
 Zn         8.0210169244       14.7238946285        8.0555209221
 Cl         9.2544569204       13.4915761775        9.2869978846
 Zn         8.0182263467        3.9129703007       18.8713085837
 Cl         9.2576732033        2.6829192791       20.0991831947
 Zn        18.8370663088       14.7236101971       18.8672677812
 Cl        20.0696878986       13.4859875396       20.0944130444
 Zn        18.8326685069        3.9079960100        8.0512403709
 Cl        20.0639357691        2.6776287079        9.2867921765
 Zn        14.6975120766        8.0536468524        8.0536470660
 Cl        13.4642311002        9.2856213885        9.2856212661
 Zn        14.7063808244       18.8677702304       18.8677689015
 Cl        13.4675383961       20.0969639086       20.0969643382
 Zn         3.8864048707        8.0549605610       18.8702073494
 Cl         2.6543275531        9.2922461785       20.0981613843
 Zn         3.8864090305       18.8702068172        8.0549576542
 Cl         2.6543256868       20.0981619168        9.2922469267
 Zn        14.6999231139       14.7225472102        8.0536303773
 Cl        13.4658436500       13.4911283592        9.2853748926
 Zn        14.7028712397        3.9076955069       18.8668699542
 Cl        13.4631315011        2.6780888006       20.0948291986
 Zn         3.8893259037       14.7266870495       18.8708258481
 Cl         2.6566367672       13.4908081240       20.0994748021
 Zn         3.8841582224        3.9120468362        8.0549720408
 Cl         2.6512198153        2.6841393028        9.2915694339
 Zn         8.0191758042        8.0560053277        8.0560023550
 Cl         9.2529985129        9.2876946881        9.2876932334
 Zn         8.0219484918       18.8701229937       18.8701202494
 Cl         9.2632497658       20.0980933693       20.0980925550
 Zn        18.8343485118        8.0511789103       18.8687463417
 Cl        20.0674457460        9.2873943733       20.0966787654
 Zn        18.8343483357       18.8687449458        8.0511768915
 Cl        20.0674491117       20.0966806463        9.2873974354
 Zn        14.6999199430        8.0536315788       14.7225442494
 Cl        13.4658415771        9.2853757879       13.4911279153
 Zn        14.7028745211       18.8668703381        3.9076961524
 Cl        13.4631331930       20.0948281080        2.6780886254
 Zn         3.8841551650        8.0549767132        3.9120402978
 Cl         2.6512209451        9.2915681647        2.6841388175
 Zn         3.8893264348       18.8708278636       14.7266840339
 Cl         2.6566323727       20.0994798652       13.4908029532
 Zn         8.0227886486       14.7243027767       14.7243003193
 Cl         9.2557904094       13.4921756051       13.4921753403
 Zn         8.0149930378        3.9113984499        3.9113959974
 Cl         9.2526620882        2.6815806021        2.6815797816
 Zn        18.8354683433       14.7234535008        3.9094413416
 Cl        20.0662692907       13.4864632721        2.6799155957
 Zn        18.8354674534        3.9094404483       14.7234516733
 Cl        20.0662721112        2.6799112683       13.4864610339
 Zn         5.9520754107        5.9873710267       16.8001845388
 Zn        16.7716409415       16.7935181243       16.7935164017
 Zn        16.7675227389        5.9814746492        5.9814743652
 Zn         5.9520781141       16.8001929268        5.9873657254
 Zn         5.9499765903        5.9873673719        5.9873646965
 Zn        16.7696844856       16.7936910845        5.9816466029
 Zn         5.9541290936       16.8001679944       16.8001608061
 Zn        16.7696853821        5.9816472255       16.7936903037
  N         3.7666904475        5.9837843771       16.7986518598
  N        14.5818376638        5.9814848308        5.9814848402
  N        18.9584875913       16.7947822429       16.7947951259
  N         8.1359192048       16.7972866251        5.9842772770
  N        18.9530984490        5.9802246078        5.9802062788
  N         8.1359153749        5.9842776486       16.7972858349
  N         3.7666947455       16.7986318499        5.9837628158
  N        14.5879495533       16.7949365723       16.7949365731
  N        16.7642594205        3.7934377262        5.9806211088
  N        16.7701699429       14.6111855676       16.7937371689
  N        16.7711954810       18.9832609509       16.7946745044
  N        16.7650534293        8.1638331905        5.9812060958
  N         5.9535019869       18.9871736732        5.9852078275
  N         5.9543946872        8.1673665152       16.7973082415
  N         5.9532311572        3.7970127591       16.7986840861
  N         5.9525245496       14.6146459875        5.9853712237
  N         5.9532245591       16.7986775753        3.7970068981
  N         5.9525262557        5.9853837447       14.6146429903
  N        16.7712023397       16.7946675315       18.9832618993
  N        16.7650450621        5.9812170661        8.1638304760
  N         5.9534886535        5.9852229978       18.9871727945
  N         5.9544127196       16.7972978782        8.1673596173
  N        16.7642681899        5.9806292781        3.7934357608
  N        16.7701633978       16.7937317944       14.6111862733
  N         5.9499794960        3.7970027566        5.9843562886
  N         5.9561742722       14.6147125292       16.7973681385
  N        16.7678444489       18.9834162453        5.9801378761
  N        16.7677710873        8.1638114651       16.7946081970
  N         5.9568237015       18.9869647882       16.7978963389
  N         5.9504912288        8.1675426962        5.9857848114
  N        16.7680917326        3.7934070604       16.7940518876
  N        16.7676502057       14.6111460375        5.9820397603
  N         3.7694770689       16.7993363800       16.7993486516
  N        14.5850582683       16.7945849028        5.9810095770
  N        18.9558675732       16.7952759931        5.9806459975
  N         8.1386946639       16.7971298215       16.7971278274
  N        18.9558630780        5.9806616156       16.7952925038
  N         8.1328970825        5.9841293217        5.9841282231
  N         3.7637145169        5.9849083126        5.9848786731
  N        14.5850551618        5.9810116648       16.7945839473
  N        16.7678487858        5.9801461583       18.9834178971
  N        16.7677679728       16.7946020834        8.1638091096
  N        16.7681021358       16.7940438112        3.7934039900
  N        16.7676387119        5.9820499592       14.6111475356
  N         5.9499659132        5.9843713615        3.7969976694
  N         5.9561829797       16.7973629765       14.6147090823
  N         5.9568155001       16.7978907125       18.9869630571
  N         5.9505040436        5.9858036355        8.1675350335
  C        11.3625807225       15.7375617534       15.7375625579
  H        11.3620546497       14.9619538271       14.9619548802
  C        11.3564322910        4.9244725502        4.9244802471
  H        11.3555733899        4.1489622437        4.1489692881
  C         0.5424770595       15.7352948063        4.9276340719
  H         0.5438646378       14.9591730823        4.1526728261
  C         0.5424742929        4.9276279324       15.7352996254
  H         0.5438615081        4.1526603785       14.9591708913
  C        11.3605514626        7.0399528629       15.7364194779
  H        11.3606555465        7.8153311164       14.9605994814
  C        11.3603774136       17.8538429524        4.9240096538
  H        11.3602299153       18.6295373548        4.1486953990
  C         0.5384491093        7.0444099387        4.9281425055
  H         0.5386447789        7.8204373586        4.1530999379
  C         0.5440633250       17.8519555187       15.7358116531
  H         0.5443073470       18.6271287707       14.9598917652
  C        11.3605540054       15.7364232246        7.0399525392
  H        11.3606565482       14.9606033929        7.8153302365
  C        11.3603712004        4.9240092692       17.8538397199
  H        11.3602248398        4.1486955430       18.6295340449
  C         0.5440643829       15.7358139072       17.8519526915
  H         0.5443086146       14.9598998546       18.6271198509
  C         0.5384499692        4.9281425510        7.0444096460
  H         0.5386483621        4.1530926067        7.8204441286
  C        11.3581770972        7.0412196822        7.0412270407
  H        11.3588692286        7.8168103080        7.8168171042
  C        11.3640767533       17.8541956141       17.8541957975
  H        11.3646978325       18.6296914383       18.6296913238
  C         0.5402128171        7.0433735850       17.8519489859
  H         0.5392468004        7.8192484187       18.6271469320
  C         0.5402153640       17.8519439008        7.0433792461
  H         0.5392522390       18.6271486319        7.8192599825
  C        15.7108000053       11.3877513925       15.7346952795
  H        14.9354252735       11.3879630102       14.9588268034
  C        15.7040354261        0.5679635462        4.9251921970
  H        14.9282339694        0.5675118987        4.1498928067
  C         4.8918892436       11.3912055984        4.9277445696
  H         4.1168591426       11.3913763833        4.1516882407
  C         4.9014611370        0.5714443834       15.7353334356
  H         4.1264099624        0.5710224269       14.9592368577
  C        15.7069185388       11.3877688409        7.0399120731
  H        14.9316288772       11.3880274542        7.8158587191
  C        15.7082596116        0.5679506008       17.8495037179
  H        14.9327604562        0.5676259513       18.6250855782
  C         4.8972720780       11.3911635164       17.8562889856
  H         4.1221773279       11.3913461079       18.6322722235
  C         4.8964108932        0.5715760593        7.0463196244
  H         4.1215127426        0.5711437480        7.8225483633
  C         7.0126515159       11.3905782400       15.7368288718
  H         7.7876250941       11.3902300506       14.9605504458
  C         7.0114821337        0.5725105451        4.9277590865
  H         7.7868125637        0.5732129462        4.1519904818
  C        17.8232806581       11.3871634291        4.9214289726
  H        18.5986352573       11.3868525664        4.1456900410
  C        17.8232045123        0.5688505950       15.7309879911
  H        18.5979706743        0.5695249812       14.9545998192
  C         7.0076994253       11.3906386837        7.0469555742
  H         7.7831242571       11.3902984371        7.8227606989
  C         7.0161726636        0.5724301439       17.8540879320
  H         7.7914558477        0.5731445609       18.6298881192
  C        17.8271638716       11.3872108818       17.8531472411
  H        18.6026802561       11.3869213005       18.6287245805
  C        17.8201510988        0.5690460794        7.0425848574
  H        18.5954539955        0.5698159082        7.8184164412
  C        15.7108016972       15.7346949928       11.3877499553
  H        14.9354279013       14.9588278580       11.3879623045
  C        15.7040359517        4.9251900957        0.5679641809
  H        14.9282330422        4.1498892945        0.5675118533
  C         4.9014598173       15.7353404559        0.5714419663
  H         4.1264147449       14.9592484575        0.5710206638
  C         4.8919132214        4.9277204964       11.3912005449
  H         4.1168749562        4.1516605881       11.3913683570
  C         7.0126375473       15.7368161082       11.3905739649
  H         7.7876108742       14.9605415920       11.3902268680
  C         7.0114805254        4.9277598957        0.5725063637
  H         7.7868123773        4.1519891623        0.5732085382
  C        17.8232048033       15.7309897116        0.5688504640
  H        18.5979664097       14.9546061200        0.5695231176
  C        17.8232778304        4.9214245485       11.3871621552
  H        18.5986378568        4.1456809840       11.3868523267
  C        15.7069140516        7.0399091929       11.3877675412
  H        14.9316261729        7.8158546697       11.3880268895
  C        15.7082613551       17.8495038326        0.5679505292
  H        14.9327609226       18.6250867681        0.5676253743
  C         4.8964100332        7.0463197944        0.5715749622
  H         4.1215169436        7.8225427412        0.5711433967
  C         4.8972573465       17.8562775281       11.3911583317
  H         4.1221594227       18.6322679218       11.3913382628
  C         7.0077241376        7.0469330581       11.3906344243
  H         7.7831453446        7.8227395863       11.3902957178
  C         7.0161706954       17.8540938013        0.5724252839
  H         7.7914563032       18.6298948178        0.5731394972
  C        17.8201512669        7.0425823967        0.5690470485
  H        18.5954492943        7.8184091278        0.5698153037
  C        17.8271658781       17.8531474495       11.3872092638
  H        18.6026865384       18.6287293766       11.3869209004
 Kr         2.5304179019       10.7238623188       10.7238616199
