     409
 i =     176, E =    -5136.7121508295
  N         2.8707594040        5.2040675222       16.0248479104
  C         1.5528116047        5.4739021878       16.2946770876
  N        13.6884770891        5.2043544468        5.2044266384
  C        12.3706996928        5.4749380277        5.4749711658
  N        19.5561201251       17.5786473762       16.0227347312
  C        20.8739140753       17.3087904955       16.2931253384
  N         8.7333505169       17.5807088814        5.2055819069
  C        10.0511374824       17.3087389155        5.4741301924
  N        19.5502556543        5.2011714326        6.7573698696
  C        20.8680825115        5.4723384017        6.4880879588
  N         8.7331673655        5.2055986234       17.5806766378
  C        10.0509698421        5.4741326081       17.3087293027
  N         2.8697316877       17.5804950233        6.7610127345
  C         1.5521875094       17.3100940281        6.4900062699
  N        13.6937707641       17.5778358487       17.5779175661
  C        12.3760024484       17.3079794269       17.3080117213
  N        15.8411536858        3.0490519791        5.2028445881
  C        16.1116873951        1.7313042515        5.4721760902
  N        15.8482607731       13.8687449619       16.0210019016
  C        16.1186286964       12.5510811645       16.2903416483
  N        15.8477213957       19.7315780175       17.5776599648
  C        16.1170119380       21.0491676748       17.3069393245
  N        15.8488206117        8.9136570561        6.7643506213
  C        16.1221165114       10.2309079586        6.4967700208
  N         6.5796198588       19.7354202440        5.2057066523
  C         6.3088430418       21.0530396048        5.4755383780
  N         6.5799804388        8.9149320505       16.0246724962
  C         6.3107773120       10.2327007023       16.2950618576
  N         6.5804572600        3.0520169961       17.5820403614
  C         6.3121225987        1.7341325248       17.3112456313
  N         6.5783106598       13.8717710393        6.7609626588
  C         6.3087172913       12.5541681551        6.4903042563
  N         5.0255897249       16.0259992507        3.0510956522
  C         5.2969234736       16.2954440691        1.7335781074
  N         5.0243055451        5.2037621381       13.8720795729
  C         5.2940202606        5.4737222913       12.5543155107
  N        17.4022176778       16.0201919895       19.7317469890
  C        17.1318421776       16.2902380421       21.0494324953
  N        17.4020598650        5.2061246060        8.9126913090
  C        17.1359612708        5.4792867931       10.2304321098
  N         5.0236887743        6.7618164115       19.7351338961
  C         5.2930978735        6.4914140970       21.0527459892
  N         5.0250897644       17.5814799882        8.9156243580
  C         5.2957400127       17.3113554598       10.2330691323
  N        17.3948368593        6.7601336361        3.0490754351
  C        17.1261317729        6.4888162181        1.7313821375
  N        17.4040791683       17.5766594693       13.8684838815
  C        17.1343022648       17.3059576232       12.5508845562
  N         5.0217113610        3.0513783096        6.7614212965
  C         5.2920504831        1.7338356057        6.4912346410
  N         5.0271706149       13.8719101300       17.5815334961
  C         5.2966814429       12.5542113792       17.3113518036
  N        17.3974344610       19.7325089339        6.7581430735
  C        17.1274121456       21.0501076680        6.4878194098
  N        17.4001399454        8.9119337469       17.5784728510
  C        17.1323202889       10.2296547449       17.3068750070
  N         5.0281389915       19.7348284784       16.0252623518
  C         5.2982507758       21.0524572644       16.2951081124
  N         5.0226188698        8.9156529524        5.2042080773
  C         5.2932906981       10.2332317549        5.4739292307
  N        17.3994540245        3.0486561372       16.0196560652
  C        17.1304101632        1.7307627422       16.2899788286
  N        17.4042257406       13.8690239689        5.2059888047
  C        17.1369314390       12.5514136816        5.4791075320
  N         2.8732393019       16.0250287902       17.5811844728
  C         1.5555520174       16.2942063035       17.3099040448
  N        13.6907949970       16.0196950860        6.7573082917
  C        12.3729803239       16.2905075676        6.4875457611
  N        19.5534517016       16.0241334496        5.2015693351
  C        20.8710939441       16.2943995417        5.4725729414
  N         8.7353696237       16.0238584254       16.0238038189
  C        10.0535081881       16.2933330611       16.2933014699
  N        19.5522736824        6.7578528148       17.5799796226
  C        20.8702819843        6.4884944160       17.3098905726
  N         8.7310567831        6.7612471675        6.7612050661
  C        10.0488703999        6.4908996759        6.4908798104
  N         2.8677915058        6.7616193637        5.2052127902
  C         1.5500030886        6.4901620746        5.4743544296
  N        13.6906794102        6.7572565833       16.0197494913
  C        12.3728547544        6.4875101697       16.2905455562
  N        15.8433575795        5.2003561901       19.7324177127
  C        16.1127658248        5.4709064354       21.0501181935
  N        15.8446942175       16.0224847820        8.9126855349
  C        16.1168674870       16.2910366655       10.2301292272
  N        15.8454054943       17.5768606237        3.0478527005
  C        16.1158795158       17.3065280323        1.7303670728
  N        15.8505679266        6.7637851525       13.8693072463
  C        16.1228429280        6.4963674367       12.5517309261
  N         6.5766142721        5.2054680492        3.0520706088
  C         6.3073636690        5.4754763529        1.7342208815
  N         6.5817551303       16.0248455113       13.8716139631
  C         6.3117238931       16.2951258690       12.5539290776
  N         6.5843039817       17.5813805641       19.7351124162
  C         6.3140252652       17.3109464178       21.0527246683
  N         6.5769592319        6.7616005522        8.9153755839
  C         6.3079976651        6.4906202486       10.2330012112
  N        19.5524234108       17.5799274729        6.7579154706
  C        20.8704315902       17.3098895834        6.4885090687
  N         8.7370412004       17.5798361644       17.5797639744
  C        10.0544976119       17.3090274572       17.3089891795
  N         2.8678165302        5.2052622138        6.7615573613
  C         1.5500225007        5.4743863564        6.4901254146
  N        13.6905714391        5.2014450295       17.5767974577
  C        12.3728311246        5.4721766045       17.3067719514
  N         2.8732107707       17.5812355886       16.0249437657
  C         1.5555337164       17.3099407480       16.2941550884
  N        13.6907336869       17.5767351452        5.2014992421
  C        12.3729897508       17.3067319036        5.4722120428
  N        19.5533017303        5.2014956099       16.0241829605
  C        20.8709480918        5.4725562394       16.2943996400
  N         8.7304715320        5.2051099407        5.2050491741
  C        10.0485035121        5.4751621220        5.4751354898
  N         6.5842670457       19.7351889514       17.5812900810
  C         6.3139387273       21.0527928223       17.3108642663
  N         6.5769869373        8.9154454317        6.7615409102
  C         6.3080456722       10.2330755054        6.4905549709
  N         6.5766218217        3.0521550543        5.2053492694
  C         6.3074111256        1.7342974440        5.4753606431
  N         6.5817300697       13.8716837607       16.0247925690
  C         6.3116741776       12.5540017685       16.2950712859
  N        15.8452384538        3.0477469143       17.5769428329
  C        16.1157249370        1.7302637968       17.3066058687
  N        15.8506806462       13.8692525797        6.7638435755
  C        16.1229324588       12.5516755545        6.4964235698
  N        15.8434914077       19.7323173554        5.2004597726
  C        16.1128770596       21.0500225852        5.4710154074
  N        15.8445762358        8.9126264264       16.0225495208
  C        16.1167747312       10.2300669011       16.2910979827
  N        17.3972921939        6.7580470990       19.7325862887
  C        17.1272960087        6.4877154716       21.0501875871
  N        17.4002886249       17.5783921031        8.9120164237
  C        17.1324258448       17.3068034644       10.2297329157
  N         5.0216965652        6.7615312271        3.0513310563
  C         5.2920019696        6.4913496389        1.7337835411
  N         5.0271852386       17.5815754313       13.8718150500
  C         5.2967263804       17.3114015403       12.5541204804
  N        17.3996284915       16.0195785953        3.0487422376
  C        17.1305686803       16.2899046786        1.7308480036
  N        17.4040775544        5.2059063662       13.8690983468
  C        17.1368258796        5.4790372972       12.5514852427
  N         5.0281659437       16.0253706086       19.7347890357
  C         5.2983263346       16.2952030791       21.0524106302
  N         5.0226033221        5.2042598892        8.9155633869
  C         5.2932471572        5.4739909219       10.2331452256
  N        17.4021535227       19.7316705008       16.0202851929
  C        17.1317418637       21.0493479761       16.2903170980
  N        17.4020573258        8.9126129765        5.2061774972
  C        17.1359961847       10.2303583796        5.4793446692
  N         5.0254182619        3.0511396413       16.0258953874
  C         5.2967690604        1.7336220955       16.2953475873
  N         5.0244138337       13.8721758535        5.2036906860
  C         5.2941101476       12.5544055963        5.4736539553
  N        17.3948728191        3.0490041322        6.7602430087
  C        17.1261919161        1.7313030218        6.4889255593
  N        17.4040859260       13.8683940290       17.5767227398
  C        17.1342713833       12.5508001289       17.3060219739
  N         5.0238407170       19.7351806059        6.7617163702
  C         5.2932194488       21.0527934278        6.4913022414
  N         5.0249810345        8.9157117962       17.5814217581
  C         5.2956488323       10.2331534772       17.3112996716
  N        19.5502262256        6.7573206344        5.2012074585
  C        20.8680662633        6.4880670805        5.4723539382
  N         8.7329627661        6.7606317992       16.0236629968
  C        10.0508819960        6.4892440002       16.2924291033
  N         2.8695978832        6.7610900739       17.5804086590
  C         1.5520509061        6.4900589583       17.3100273235
  N        13.6889455000        6.7608302583        6.7608780186
  C        12.3709873708        6.4907272094        6.4907504050
  N         2.8708939322       16.0249528974        5.2039794555
  C         1.5529478658       16.2947507217        5.4738431446
  N        13.6929435376       16.0215581289       16.0216199946
  C        12.3753346255       16.2922364446       16.2922608490
  N        19.5561557584       16.0226787560       17.5786843756
  C        20.8739330327       16.2931039161       17.3088058550
  N         8.7330913477       16.0236988352        6.7606077537
  C        10.0510224962       16.2924389766        6.4892399534
  N         6.5806804976       17.5821070615        3.0519461823
  C         6.3123019547       17.3113195432        1.7340634026
  N         6.5781967951        6.7610320676       13.8716973598
  C         6.3086262129        6.4903729837       12.5540897693
  N         6.5794322265        5.2057936686       19.7353492170
  C         6.3087080344        5.4756402506       21.0529698143
  N         6.5800937254       16.0247327419        8.9148620320
  C         6.3108702596       16.2951197420       10.2326255552
  N        15.8477643632       17.5775569084       19.7316813495
  C        16.1171032877       17.3068541760       21.0492646163
  N        15.8488151944        6.7642996873        8.9137085190
  C        16.1220832747        6.4967151912       10.2309608382
  N        15.8411407124        5.2027166254        3.0491521059
  C        16.1116381008        5.4720576232        1.7313982796
  N        15.8482652673       16.0209378030       13.8688038169
  C        16.1186601775       16.2902779912       12.5511402166
 Zn        14.5547294525       14.7270622703       14.7271104493
 Br        13.2396034833       13.4131672710       13.4132116471
 Zn        14.5499688991        3.9088455461        3.9089681770
 Br        13.2322864765        2.5960357281        2.5961460736
 Zn         3.7331426620       14.7313359429        3.9086859336
 Br         2.4177133074       13.4178167922        2.5945757929
 Zn         3.7330348634        3.9087670515       14.7312130614
 Br         2.4175733383        2.5946878700       13.4176890542
 Zn         7.8711636223        8.0544651663       14.7293636814
 Br         9.1869454587        9.3682346639       13.4156599256
 Zn         7.8729203755       18.8752891583        3.9116731387
 Br         9.1879549108       20.1906549662        2.5988828520
 Zn        18.6882951033        8.0524249841        3.9073005573
 Br        20.0045037911        9.3656841349        2.5934742448
 Zn        18.6967425345       18.8719235824       14.7269418472
 Br        20.0112134699       20.1860585997       13.4127214298
 Zn         7.8713064498       14.7294071005        8.0544268014
 Br         9.1870365214       13.4156795141        9.3682146277
 Zn         7.8725961496        3.9117156796       18.8752530445
 Br         9.1876873391        2.5989340884       20.1905902211
 Zn        18.6968172031       14.7268620672       18.8719506510
 Br        20.0112483792       13.4126089539       20.1860878671
 Zn        18.6883599274        3.9072751067        8.0524924687
 Br        20.0045314896        2.5934464973        9.3657830908
 Zn        14.5529046145        8.0546128168        8.0546472825
 Br        13.2417963389        9.3705542013        9.3705863764
 Zn        14.5552547779       18.8720950482       18.8722015510
 Br        13.2403966657       20.1861284534       20.1862522138
 Zn         3.7316616890        8.0553310621       18.8742939612
 Br         2.4156109662        9.3696012823       20.1872461243
 Zn         3.7317729775       18.8743589886        8.0552591998
 Br         2.4157435880       20.1873501015        9.3695054688
 Zn        14.5533547282       14.7270466435        8.0532973888
 Br        13.2395533197       13.4126040780        9.3680273325
 Zn        14.5523881785        3.9060132011       18.8711337630
 Br        13.2360333253        2.5921973062       20.1840531741
 Zn         3.7348071462       14.7308864095       18.8751513967
 Br         2.4194422801       13.4178476919       20.1897743498
 Zn         3.7303691377        3.9102231201        8.0551487191
 Br         2.4144944614        2.5972694314        9.3696035079
 Zn         7.8690232347        8.0550416830        8.0550030161
 Br         9.1855641186        9.3684994203        9.3684776624
 Zn         7.8791939655       18.8743064830       18.8742229539
 Br         9.1930976349       20.1887904891       20.1886824115
 Zn        18.6901082644        8.0520225230       18.8736946672
 Br        20.0054348962        9.3653151669       20.1883537147
 Zn        18.6903192416       18.8736324850        8.0520931502
 Br        20.0056000387       20.1882783372        9.3654331026
 Zn        14.5532743483        8.0532518295       14.7270971580
 Br        13.2394857754        9.3679876752       13.4126450418
 Zn        14.5525247788       18.8710666086        3.9060773252
 Br        13.2362133614       20.1839989455        2.5922410723
 Zn         3.7303492609        8.0552254307        3.9101987388
 Br         2.4144963049        9.3697031122        2.5972409078
 Zn         3.7347898809       18.8751701957       14.7307649922
 Br         2.4194414548       20.1898042042       13.4177197210
 Zn         7.8740335411       14.7295806517       14.7295346080
 Br         9.1890342332       13.4155548747       13.4155321172
 Zn         7.8671678719        3.9107609587        3.9106453994
 Br         9.1836758767        2.5973086094        2.5971930579
 Zn        18.6941189425       14.7273367562        3.9083127911
 Br        20.0097896560       13.4131012823        2.5953093184
 Zn        18.6938899485        3.9082211460       14.7274064300
 Br        20.0096079855        2.5952176855       13.4132067833
 Zn         5.7977410701        5.9872863886       16.8073461847
 Zn        16.6206793918       16.8015110655       16.8016890844
 Zn        16.6162086807        5.9842817103        5.9844191620
 Zn         5.7978678444       16.8074598561        5.9871834964
 Zn         5.7957540007        5.9876837795        5.9875866618
 Zn        16.6179487605       16.8021910487        5.9818622008
 Zn         5.8007427297       16.8074976887       16.8073945898
 Zn        16.6178256307        5.9816971351       16.8023374396
  N         3.6166652711        5.9829172588       16.8028445799
  N        14.4351269917        5.9824289733        5.9825072069
  N        18.8092948888       16.8005135509       16.8005814504
  N         7.9864239493       16.8031233973        5.9838698221
  N        18.8035691158        5.9788488201        5.9789092232
  N         7.9862716640        5.9839060815       16.8030698718
  N         3.6168005757       16.8029548434        5.9828205861
  N        14.4398550834       16.7995067328       16.7996032422
  N        16.6174693783        3.7959979284        5.9821089043
  N        16.6258426654       14.6154119238       16.7993410940
  N        16.6251364828       18.9849148072       16.7991748799
  N        16.6232356847        8.1664334797        5.9836168111
  N         5.8019746510       18.9887028533        5.9838885802
  N         5.8019811036        8.1686935297       16.8029388524
  N         5.8020526050        3.7985662087       16.8044351502
  N         5.8012547316       14.6189413085        5.9826292475
  N         5.8022583866       16.8045153141        3.7985060426
  N         5.8011298877        5.9827002328       14.6188549522
  N        16.6251631583       16.7990693172       18.9850109222
  N        16.6232470224        5.9835696011        8.1665011793
  N         5.8017876556        5.9839697531       18.9886400616
  N         5.8021054219       16.8029986848        8.1686121375
  N        16.6174641657        5.9819899551        3.7960873855
  N        16.6258307381       16.7992811201       14.6154903315
  N         5.7988319409        3.7987609047        5.9834278976
  N         5.8045174101       14.6187521581       16.8031507931
  N        16.6205318544       18.9856893209        5.9793272066
  N        16.6211082469        8.1655167957       16.8014256552
  N         5.8060689947       18.9884669634       16.8035367550
  N         5.7992054663        8.1689446619        5.9833789544
  N        16.6219317481        3.7950579726       16.7983377798
  N        16.6258162553       14.6159998600        5.9832331683
  N         3.6197401177       16.8038092190       16.8037257170
  N        14.4371856930       16.7981325193        5.9792408668
  N        18.8061825681       16.8019277800        5.9793682760
  N         7.9893703053       16.8022521381       16.8021746429
  N        18.8060380321        5.9792743197       16.8020098220
  N         7.9840577939        5.9833188560        5.9832525189
  N         3.6142664201        5.9841187897        5.9840548320
  N        14.4370441212        5.9791779199       16.7982012746
  N        16.6203809470        5.9792307479       18.9857816954
  N        16.6212588161       16.8013482747        8.1655917212
  N        16.6221056174       16.7982583073        3.7951574321
  N        16.6256711814        5.9831545814       14.6160674952
  N         5.7988371745        5.9835426542        3.7986940624
  N         5.8045249960       16.8031943911       14.6186689695
  N         5.8060739859       16.8036418057       18.9884061410
  N         5.7991978223        5.9834323617        8.1688632318
  C        11.2138783666       15.7431971250       15.7431915944
  H        11.2131338798       14.9676894826       14.9676850674
  C        11.2094698515        4.9255764482        4.9255803211
  H        11.2093889974        4.1500664776        4.1500717511
  C         0.3923609887       15.7451155540        4.9235310261
  H         0.3929816389       14.9697589880        4.1478638621
  C         0.3922185171        4.9235616214       15.7450754677
  H         0.3928413695        4.1478988810       14.9697148506
  C        11.2118216524        7.0375200945       15.7415687084
  H        11.2117380470        7.8127905417       14.9658273410
  C        11.2120695645       17.8574415272        4.9238014275
  H        11.2121434943       18.6334467553        4.1487869569
  C         0.3889854493        7.0386788981        4.9238677238
  H         0.3889627024        7.8143623311        4.1485421181
  C         0.3946713751       17.8589023994       15.7439585813
  H         0.3946878580       18.6345220137       14.9685603273
  C        11.2119322817       15.7415519513        7.0375379890
  H        11.2118198355       14.9658104668        7.8128086080
  C        11.2118866161        4.9237886424       17.8574539612
  H        11.2119302890        4.1487747365       18.6334592508
  C         0.3947212132       15.7439753314       17.8588937095
  H         0.3947834932       14.9685790276       18.6345154316
  C         0.3890278214        4.9238756603        7.0386718762
  H         0.3890457365        4.1485507985        7.8143557021
  C        11.2100037826        7.0402935894        7.0402945615
  H        11.2100230530        7.8157975871        7.8157989849
  C        11.2156818331       17.8581097826       17.8581052821
  H        11.2164566663       18.6336193397       18.6336160148
  C         0.3907207715        7.0390395583       17.8592996846
  H         0.3901667361        7.8147771309       18.6345657363
  C         0.3908643211       17.8593384143        7.0390193079
  H         0.3903104195       18.6346054101        7.8147563817
  C        15.5682683505       11.3908217078       15.7406305409
  H        14.7926169630       11.3911362345       14.9652499867
  C        15.5631243554        0.5706572914        4.9212942727
  H        14.7880664584        0.5706103287        4.1453232854
  C         4.7444823450       11.3939612844        4.9235301932
  H         3.9693210645       11.3940919605        4.1476597230
  C         4.7479373182        0.5727654864       15.7453738901
  H         3.9722429531        0.5723126928       14.9700303486
  C        15.5745846258       11.3915602853        7.0482785823
  H        14.7999300096       11.3917931805        7.8246359943
  C        15.5670700024        0.5695153950       17.8568970813
  H        14.7920211988        0.5691499728       18.6328768750
  C         4.7467226189       11.3939469552       17.8613596265
  H         3.9714474395       11.3942248866       18.6371103548
  C         4.7428230685        0.5730955828        7.0409751994
  H         3.9671926716        0.5726952276        7.8163795341
  C         6.8606993159       11.3931822786       15.7450645943
  H         7.6358031631       11.3928066311       14.9691288094
  C         6.8577776079        0.5739835280        4.9256113067
  H         7.6332444569        0.5744233258        4.1500362317
  C        17.6859635312       11.3906314939        4.9291319136
  H        18.4597716148       11.3901439605        4.1519080854
  C        17.6802433041        0.5703009226       15.7398816601
  H        18.4550563897        0.5706347253       14.9636601460
  C         6.8577291581       11.3935343181        7.0406116034
  H         7.6324946630       11.3933381549        7.8168903776
  C         6.8627629781        0.5737981341       17.8607587210
  H         7.6379762625        0.5743211078       18.6365725194
  C        17.6833213961       11.3899734304       17.8559446785
  H        18.4586733289       11.3895192445       18.6316242733
  C        17.6760556534        0.5707384898        7.0385780520
  H        18.4508431041        0.5707497522        7.8148326516
  C        15.5683284652       15.7405715555       11.3908707711
  H        14.7926746621       14.9651931864       11.3911617150
  C        15.5630481511        4.9211782561        0.5707636491
  H        14.7879937896        4.1452037107        0.5707354969
  C         4.7480450570       15.7454750455        0.5727366860
  H         3.9723400312       14.9701426200        0.5723135586
  C         4.7444138720        4.9235957507       11.3938631334
  H         3.9692499378        4.1477275724       11.3939810574
  C         6.8607729181       15.7451229380       11.3931180139
  H         7.6358780499       14.9691886068       11.3927565435
  C         6.8576883025        4.9257163266        0.5738939847
  H         7.6331527581        4.1501385812        0.5743038991
  C        17.6803756365       15.7398126840        0.5703730053
  H        18.4551891296       14.9635910393        0.5706853233
  C        17.6858881437        4.9290621163       11.3907184174
  H        18.4596876695        4.1518296653       11.3902521769
  C        15.5745266968        7.0482263546       11.3916050098
  H        14.7998752504        7.8245868779       11.3918176726
  C        15.5671946468       17.8568167190        0.5696271342
  H        14.7921438455       18.6327940606        0.5692819419
  C         4.7427427022        7.0410947814        0.5730598417
  H         3.9671182735        7.8165054504        0.5726857260
  C         4.7467907142       17.8614136148       11.3938499065
  H         3.9715174663       18.6371663641       11.3941144577
  C         6.8576601322        7.0406815173       11.3934677942
  H         7.6324262476        7.8169597956       11.3932853773
  C         6.8629049845       17.8608247595        0.5737108166
  H         7.6381282075       18.6366287880        0.5742000770
  C        17.6759680457        7.0384756288        0.5708049327
  H        18.4507557066        7.8147294315        0.5707965070
  C        17.6833921466       17.8558727893       11.3900713947
  H        18.4587501395       18.6315463509       11.3896412149
 Kr        18.6630774189       10.3604183782       10.3605292682
