     409
 i =     176, E =    -5136.6875056206
  N         2.9650106134        5.2429450080       15.9659472718
  C         1.6436656454        5.4954763415       16.2373342248
  N        13.8163822481        5.0818785774        5.0819588234
  C        12.4923036457        5.3373680083        5.3380070230
  N        19.5928361236       17.5394549686       15.9843214857
  C        20.9099127734       17.2845198807       16.2690144963
  N         8.8229438011       17.5969844742        5.2006934772
  C        10.1396664422       17.2904169117        5.4357658050
  N        19.6539835928        5.1795608165        6.7359490891
  C        20.9715556098        5.4620294536        6.4780969541
  N         8.8232339377        5.2000752239       17.5976016108
  C        10.1399493186        5.4349657864       17.2908124451
  N         2.9482498455       17.5394142645        6.7797989404
  C         1.6338391408       17.2624740750        6.5014210194
  N        13.7494699702       17.6109497695       17.6110163990
  C        12.4235734963       17.3594148081       17.3595308397
  N        15.9976752226        2.9781343853        5.1258388573
  C        16.2571760217        1.6642649038        5.4157505777
  N        15.8394987105       13.8563416056       16.0210968148
  C        16.1168042226       12.5355253685       16.2770724145
  N        15.9351506485       19.7263039067       17.5710688665
  C        16.2086522146       21.0403595374       17.2891313077
  N        15.9094702354        8.8418227302        6.6842090721
  C        16.1862838002       10.1631338180        6.4330586802
  N         6.6249410111       19.6970504452        5.1976091144
  C         6.3491000233       21.0135266347        5.4552151906
  N         6.6222424083        8.9555041448       16.0313137826
  C         6.3425507227       10.2736671864       16.3018462071
  N         6.6580968233        3.0932288190       17.5377088514
  C         6.3735863800        1.7778682460       17.2809472863
  N         6.7227080177       13.8131507453        6.8604466584
  C         6.4576217187       12.4977032329        6.5610562417
  N         5.1235518974       15.9610722983        3.0947503152
  C         5.3708232836       16.2527045120        1.7763561213
  N         5.1623839801        5.3059914200       13.8376357684
  C         5.4373703195        5.5510313144       12.5165270861
  N        17.4681686789       15.9942134532       19.7091300336
  C        17.2112088639       16.2606598531       21.0300278819
  N        17.4771666118        5.1410046671        8.8557010356
  C        17.2082928258        5.4232638333       10.1706388964
  N         5.0815063914        6.7643471038       19.7055133899
  C         5.3436138757        6.4801603548       21.0210616355
  N         5.0709206343       17.5902348837        8.9446787741
  C         5.3291614912       17.3197387545       10.2648408984
  N        17.5277234717        6.7058304179        2.9897323143
  C        17.2564294726        6.4472317324        1.6699522076
  N        17.4247530347       17.5469076398       13.8486546008
  C        17.1518294977       17.2730605129       12.5330361552
  N         5.0859064059        3.0208955586        6.7242908107
  C         5.3444778919        1.6999262171        6.4609217625
  N         5.0515233144       13.9047399780       17.6246214860
  C         5.3178435196       12.5888915950       17.3384182814
  N        17.4917243835       19.6708510640        6.7574491480
  C        17.2381550430       20.9888335035        6.4728747635
  N        17.4588005570        8.8968273682       17.5111836103
  C        17.1677499333       10.2126272421       17.2564804272
  N         5.0539268860       19.7767216678       16.0543915456
  C         5.3388821562       21.0955290225       16.3010172237
  N         5.1591111082        8.8844765999        5.1792193468
  C         5.4329407910       10.1949929169        5.4828747200
  N        17.4942721356        3.0279377612       15.9675036204
  C        17.2236719960        1.7115257238       16.2463230343
  N        17.4928528562       13.8095417109        5.1840268894
  C        17.2183499091       12.4912491621        5.4451477163
  N         2.9066624332       16.0532406594       17.6092151669
  C         1.5896165098       16.3027513015       17.3184066571
  N        13.7706135984       15.9297762355        6.6669470841
  C        12.4562278475       16.2113054327        6.3921671896
  N        19.6447356473       15.9622344770        5.1983876634
  C        20.9610422564       16.2355719116        5.4751928998
  N         8.7558985401       16.1126910495       16.1129476772
  C        10.0786905940       16.3709584369       16.3712008533
  N        19.6339975393        6.7542847573       17.5189131559
  C        20.9531613420        6.4884256941       17.2539352443
  N         8.8447076983        6.6073096519        6.6088870467
  C        10.1616373902        6.3381258457        6.3397464634
  N         2.9710987230        6.7613471892        5.2054524932
  C         1.6531433021        6.4902958938        5.4748541969
  N        13.7707623897        6.6663223359       15.9298517846
  C        12.4564331423        6.3912765202       16.2113643060
  N        15.9585718862        5.1813070928       19.6718805080
  C        16.2376274334        5.4426475216       20.9876893644
  N        15.8731555436       15.9846208968        8.8899247579
  C        16.1327463749       16.2601593058       10.2105514514
  N        15.9498407599       17.5341225856        3.0380003285
  C        16.2167559948       17.2704608470        1.7196739237
  N        15.9372475252        6.7399206647       13.8041608782
  C        16.2015573959        6.4593532043       12.4866750648
  N         6.6137720639        5.1400040531        2.9995658880
  C         6.3436179968        5.4289007890        1.6882539103
  N         6.6038391212       16.0670848091       13.9194019399
  C         6.3309406772       16.3209777485       12.5985709026
  N         6.5953570038       17.6258400399       19.7851145846
  C         6.3441668664       17.3271813941       21.1000268176
  N         6.7387188575        6.7115479743        8.8459593113
  C         6.4629118926        6.4858501751       10.1705649651
  N        19.6338800359       17.5187137665        6.7543384876
  C        20.9530473655       17.2538118065        6.4884539231
  N         8.7818921315       17.6669610516       17.6669559905
  C        10.0972771942       17.3865874929       17.3866825363
  N         2.9711959673        5.2053473971        6.7619447818
  C         1.6531794931        5.4745478841        6.4908513540
  N        13.7842820586        5.1686811053       17.5413020298
  C        12.4634083629        5.4179138725       17.2656934252
  N         2.9066394584       17.6092124217       16.0532519604
  C         1.5896032469       17.3183820169       16.3027846259
  N        13.7839801566       17.5408408609        5.1688839456
  C        12.4631275139       17.2653542968        5.4184663408
  N        19.6448327241        5.1983717777       15.9623811317
  C        20.9611464118        5.4752059851       16.2356566403
  N         8.8436129630        5.0552553031        5.0553106505
  C        10.1645386393        5.3233998143        5.3240624277
  N         6.5952863389       19.7851243365       17.6258039427
  C         6.3440947052       21.1000321049       17.3271437767
  N         6.7370003474        8.8454772332        6.7101431402
  C         6.4614317760       10.1702270288        6.4846286064
  N         6.6138775342        2.9996441351        5.1402699144
  C         6.3436860717        1.6883234118        5.4291525779
  N         6.6038460705       13.9193263719       16.0668847691
  C         6.3307663929       12.5985526547       16.3208419066
  N        15.9499550704        3.0378944473       17.5343441451
  C        16.2168126056        1.7195761452       17.2706181619
  N        15.9370885764       13.8039692678        6.7399794292
  C        16.2013651642       12.4864785714        6.4594241935
  N        15.9583648779       19.6716037169        5.1814448275
  C        16.2374542263       20.9874219887        5.4427468052
  N        15.8730942089        8.8897677416       15.9848794001
  C        16.1327181116       10.2104081075       16.2603471574
  N        17.4918395858        6.7573965302       19.6711295664
  C        17.2382764400        6.4728225741       20.9891144330
  N        17.4587776126       17.5109972181        8.8969363234
  C        17.1677364832       17.2563324821       10.2127444578
  N         5.0855163053        6.7237368359        3.0207856704
  C         5.3442630927        6.4605246651        1.6998413539
  N         5.0514031515       17.6246986260       13.9045924848
  C         5.3179140005       17.3384688477       12.5887822255
  N        17.4941686089       15.9672852887        3.0280230734
  C        17.2236196801       16.2461682757        1.7116120538
  N        17.4929093122        5.1838795062       13.8097780410
  C        17.2184635430        5.4450024455       12.4914767921
  N         5.0539673698       16.0544746370       19.7766940729
  C         5.3389150245       16.3010923292       21.0955007794
  N         5.1606943074        5.1806471108        8.8845101835
  C         5.4344443518        5.4840958427       10.1950935676
  N        17.4681558916       19.7090536594       15.9943007722
  C        17.2112050537       21.0299485560       16.2607558408
  N        17.4770812699        8.8554712166        5.1413666373
  C        17.2081382932       10.1704180054        5.4235001442
  N         5.1237206106        3.0948421488       15.9609463228
  C         5.3708614933        1.7764065811       16.2525852222
  N         5.1613279754       13.8375256549        5.3051579026
  C         5.4361556969       12.5163750683        5.5500390498
  N        17.5276253121        2.9894179774        6.7059256084
  C        17.2563101031        1.6696593317        6.4472954311
  N        17.4247928249       13.8485410191       17.5469771028
  C        17.1518634278       12.5329187819       17.2731526782
  N         5.0815297576       19.7055141143        6.7644849405
  C         5.3436715119       21.0210839575        6.4803459501
  N         5.0707276753        8.9448114466       17.5905819372
  C         5.3289295355       10.2649481208       17.3198855735
  N        19.6539980648        6.7355424048        5.1799340537
  C        20.9715515582        6.4776584483        5.4623963807
  N         8.8156678957        6.6973254064       15.9883185423
  C        10.1351518048        6.4102072192       16.2367985837
  N         2.9483590043        6.7798195574       17.5394421091
  C         1.6339590245        6.5014115642       17.2624835463
  N        13.7897045259        6.6377253380        6.6388387216
  C        12.4794839740        6.3514144652        6.3528625393
  N         2.9648453461       15.9661197926        5.2427281613
  C         1.6435329356       16.2374261910        5.4953883544
  N        13.7102230063       16.0549273242       16.0551191838
  C        12.4000576499       16.3444120757       16.3446272386
  N        19.5928508763       15.9842375001       17.5395171302
  C        20.9099236812       16.2689484425       17.2845728829
  N         8.8154256919       15.9881233373        6.6985220553
  C        10.1349102821       16.2367094710        6.4113779933
  N         6.6581267849       17.5376416541        3.0932717010
  C         6.3736488078       17.2809682508        1.7778769894
  N         6.7237902446        6.8614026851       13.8135806498
  C         6.4588096271        6.5621041795       12.4981106938
  N         6.6249440068        5.1974763704       19.6970541247
  C         6.3490798232        5.4550724620       21.0135101204
  N         6.6225330828       16.0309985404        8.9555424841
  C         6.3428484330       16.3017532396       10.2736733109
  N        15.9351583467       17.5709852912       19.7263882435
  C        16.2086543257       17.2890347045       21.0404451963
  N        15.9098252106        6.6841393419        8.8420155842
  C        16.1865846815        6.4329714793       10.1633273433
  N        15.9978124975        5.1256874769        2.9783658278
  C        16.2573268601        5.4156501707        1.6645177473
  N        15.8394705596       16.0210042443       13.8564780639
  C        16.1167855287       16.2769614571       12.5356604157
 Zn        14.5435541395       14.7500993208       14.7502655226
 Br        13.2700641005       13.4149055545       13.4151646991
 Zn        14.7146816383        3.8049734597        3.8050539185
 Br        13.4132060305        2.4847273263        2.4848171119
 Zn         3.8554938085       14.6660243590        3.9880088807
 Br         2.5625570501       13.3253272315        2.6774221179
 Zn         3.8561169772        3.9886127485       14.6658540347
 Br         2.5633295174        2.6782355680       13.3248028814
 Zn         7.9880928273        8.1083509419       14.8042139012
 Br         9.5929432076        9.5911492736       14.1566329462
 Zn         7.9434849036       18.8660316104        3.9137930481
 Br         9.2455639822       20.1736488521        2.5849901813
 Zn        18.7929625319        8.0097286480        3.8667579309
 Br        20.1117312320        9.3344947846        2.5656313454
 Zn        18.7327176319       18.8304364112       14.6926812229
 Br        20.0541674473       20.1360174081       13.3747457283
 Zn         7.9868608541       14.8020323851        8.1080194419
 Br         9.5894014643       14.1456076194        9.5891124921
 Zn         7.9434102008        3.9132976798       18.8664250792
 Br         9.2453811336        2.5844746467       20.1740569272
 Zn        18.7327380183       14.6925700075       18.8304914958
 Br        20.0542265673       13.3746769382       20.1360720328
 Zn        18.7928519906        3.8660855260        8.0098868475
 Br        20.1118689224        2.5651949040        9.3346282358
 Zn        14.6116896422        7.9490974782        7.9493605234
 Br        13.3577844590        9.2918831968        9.2930065802
 Zn        14.6537999114       18.8855262118       18.8855970431
 Br        13.3681267576       20.2150294199       20.2151033382
 Zn         3.7829053936        8.0602124878       18.8652739789
 Br         2.4533531251        9.3445742393       20.1935543374
 Zn         3.7829859627       18.8650183151        8.0602409536
 Br         2.4535684475       20.1934528502        9.3446476037
 Zn        14.6153710044       14.6676491708        8.0046067813
 Br        13.3369493711       13.3193596068        9.3192300324
 Zn        14.6581800510        3.8916118788       18.8298594147
 Br        13.3445843477        2.5804687471       20.1491995179
 Zn         3.7587596376       14.7669443331       18.9159285041
 Br         2.4481474028       13.4470799403       20.2297940264
 Zn         3.8349546430        3.9009580538        8.0449759508
 Br         2.5184292237        2.6042095343        9.3719603385
 Zn         8.0482319541        7.9073720533        7.9058304267
 Br         9.6512282680        9.0534070392        9.0295796165
 Zn         7.8869692998       18.9414429547       18.9414134062
 Br         9.1801478896       20.2654246955       20.2654202756
 Zn        18.7685166547        8.0562128493       18.7996124300
 Br        20.0773431832        9.3733030432       20.1171951395
 Zn        18.7684660648       18.7993229113        8.0562561534
 Br        20.0772648137       20.1170236200        9.3732812446
 Zn        14.6153812689        8.0043850355       14.6678717816
 Br        13.3368369098        9.3187875231       13.3195016965
 Zn        14.6579788867       18.8295394083        3.8917795289
 Br        13.3443985391       20.1489189615        2.5806665377
 Zn         3.8340275110        8.0442642880        3.9003189774
 Br         2.5170070533        9.3705128491        2.6032646602
 Zn         3.7586166995       18.9159329668       14.7668944529
 Br         2.4480274071       20.2299816441       13.4471883926
 Zn         7.9024266630       14.8236751141       14.8235890447
 Br         9.4348905186       13.6422297998       13.6390846502
 Zn         7.9013438619        3.7980706902        3.7980835172
 Br         9.1514026693        2.4550991282        2.4552394648
 Zn        18.7834069517       14.6735284585        3.8946784636
 Br        20.1154010085       13.3794237811        2.5765109025
 Zn        18.7834824395        3.8946160477       14.6737417433
 Br        20.1155321297        2.5764591864       13.3796604973
 Zn         5.8947333028        6.0201893417       16.7814057292
 Zn        16.6607940690       16.7812850369       16.7813667842
 Zn        16.7247566541        5.9078893927        5.9081170001
 Zn         5.8946232923       16.7810300745        6.0201859433
 Zn         5.8995592650        5.9109305436        5.9105882059
 Zn        16.7103260874       16.7344757405        5.9605531841
 Zn         5.8338801825       16.8653864268       16.8653136147
 Zn        16.7104242781        5.9604718353       16.7348373412
  N         3.7038840187        6.0183432405       16.7539172782
  N        14.5493520947        5.8668851219        5.8672258113
  N        18.8459878827       16.7545587183       16.7546389542
  N         8.0734328638       16.8093472163        5.9663976803
  N        18.9076796593        5.9506280458        5.9510218887
  N         8.0736783849        5.9655972534       16.8098584938
  N         3.7037527573       16.7539855680        6.0181805647
  N        14.4764437543       16.8232505981       16.8233596055
  N        16.7648442882        3.7305769322        5.9078535636
  N        16.6315930155       14.5988048434       16.7886228475
  N        16.6968896174       18.9706048239       16.7863288199
  N        16.6920492826        8.1017371149        5.9049803436
  N         5.8576438359       18.9544339351        5.9886189809
  N         5.8534329160        8.2042263597       16.8123662988
  N         5.9004530670        3.8406502763       16.7416835649
  N         5.9377341723       14.5725191659        6.0933515433
  N         5.9003409420       16.7416789584        3.8406259029
  N         5.9387280192        6.0941031301       14.5727830627
  N        16.6969016914       16.7862475674       18.9706867576
  N        16.6922393149        5.9047350043        8.1019542908
  N         5.8576522642        5.9884895217       18.9544378912
  N         5.8536251497       16.8119147996        8.2041840283
  N        16.7649515985        5.9077070808        3.7308425945
  N        16.6315592963       16.7885515718       14.5989261973
  N         5.8536171975        3.7557919167        5.9252842545
  N         5.8301758289       14.6596751635       16.8550068944
  N        16.7181079763       18.9240292898        5.9750732303
  N        16.6754888997        8.1468387725       16.7420756378
  N         5.8156452826       19.0352357300       16.8531083467
  N         5.9484564404        8.1177648606        5.9242121983
  N        16.7225906156        3.7795557751       16.7474524984
  N        16.7165113545       14.5532166762        5.9665068821
  N         3.6531943779       16.8420893092       16.8420880879
  N        14.5242728320       16.7355376211        5.9257614379
  N        18.8930220566       16.7380862498        5.9739495334
  N         8.0224925172       16.8943964154       16.8944847715
  N        18.8931315698        5.9739000935       16.7382955673
  N         8.0969387503        5.8336033660        5.8341517899
  N         3.7176924464        5.9825734816        5.9828704706
  N        14.5244943871        5.9254963162       16.7358776847
  N        16.7182755674        5.9749696841       18.9243072266
  N        16.6755048556       16.7418252449        8.1469681318
  N        16.7224551065       16.7471935908        3.7796493543
  N        16.7165943030        5.9664026529       14.5534387048
  N         5.8532998831        5.9248457087        3.7556801790
  N         5.8300346235       16.8551449151       14.6596312714
  N         5.8156989985       16.8531692031       19.0352120045
  N         5.9502272197        5.9255638980        8.1179689835
  C        11.2284531685       15.8098390241       15.8101490961
  H        11.2049760701       15.0348130844       15.0351295095
  C        11.3346656575        4.7811127547        4.7813973136
  H        11.3461861796        4.0062078921        4.0058791799
  C         0.4874606645       15.6845437702        4.9380848070
  H         0.4938961424       14.9052451677        4.1665542512
  C         0.4875617515        4.9381656937       15.6845174352
  H         0.4939371185        4.1666648290       14.9051890534
  C        11.2951995678        6.9172369619       15.6465673201
  H        11.2929608839        7.6682281355       14.8491959890
  C        11.3036951565       17.8450909818        4.8956228908
  H        11.3068233536       18.6499199722        4.1509018918
  C         0.4921655155        7.0348636045        4.9202997712
  H         0.4912204128        7.8094536435        4.1438516950
  C         0.4298126084       17.8505906809       15.7351026387
  H         0.4293441802       18.6261201687       14.9595882767
  C        11.2950272290       15.6467505966        6.9185856151
  H        11.2927826368       14.8494866866        7.6697303014
  C        11.3040391906        4.8950688453       17.8455789625
  H        11.3072497335        4.1505701051       18.6506051363
  C         0.4298389041       15.7350465639       17.8506230611
  H         0.4293901276       14.9595224814       18.6261428314
  C         0.4921778529        4.9200479918        7.0354326093
  H         0.4911735722        4.1437105278        7.8101242708
  C        11.3166581055        6.8915522007        6.8938007551
  H        11.3024249881        7.6663058502        7.6685547761
  C        11.2730518154       17.9221826643       17.9222355102
  H        11.2926672564       18.6974663079       18.6974396756
  C         0.4684929510        7.0404045317       17.8119270566
  H         0.4611562488        7.8108622706       18.5925515650
  C         0.4683539909       17.8118291002        7.0404632814
  H         0.4609811736       18.5924075880        7.8109639424
  C        15.5642964648       11.3729319349       15.7309784226
  H        14.7765658785       11.3738951309       14.9680383463
  C        15.7057776705        0.5040039558        4.8703778519
  H        14.9414890029        0.5014681696        4.0837350784
  C         4.8807546228       11.3714870637        4.9731542366
  H         4.0993892452       11.3978904690        4.2032610180
  C         4.8114080563        0.6121667259       15.7204133851
  H         4.0439047375        0.6049549864       14.9371880306
  C        15.6430903261       11.3221648658        6.9943285172
  H        14.8665869564       11.3193932718        7.7688160316
  C        15.6691600401        0.5660912159       17.8361342769
  H        14.9016454798        0.5753161281       18.6196201862
  C         4.7744603344       11.4201376391       17.8784906762
  H         4.0032072312       11.4096531869       18.6581719703
  C         4.7994304269        0.5453804974        7.0273478280
  H         4.0331229397        0.5518367258        7.8119141138
  C         6.8819132807       11.4440069839       15.7602031083
  H         7.6691492075       11.4528840272       14.9978918907
  C         6.8888570670        0.5257980907        4.8832985012
  H         7.6543074901        0.5189983860        4.0976053150
  C        17.7651383876       11.3336543931        4.8871999005
  H        18.5436960575       11.3372116198        4.1148171614
  C        17.7619073657        0.5445947650       15.6983414493
  H        18.5298526403        0.5353038286       14.9155144159
  C         7.0129460598       11.3173943244        7.0648141893
  H         7.8004259713       11.2809778611        7.8250240556
  C         6.9029891137        0.6226427195       17.8598140428
  H         7.6699601474        0.6291378342       18.6440059792
  C        17.7190416476       11.3726977848       17.8043248975
  H        18.5092998128       11.3728451318       18.5649395281
  C        17.7888429527        0.5112464708        7.0188364342
  H        18.5519887026        0.5142736733        7.8064218656
  C        15.5643117022       15.7308179338       11.3730783213
  H        14.7766012535       14.9678575209       11.3740311757
  C        15.7059532113        4.8702627479        0.5042555215
  H        14.9416836718        4.0836003411        0.5017042533
  C         4.8113775420       15.7205338670        0.6121173142
  H         4.0438428875       14.9373382131        0.6049222345
  C         4.8820893803        4.9742903846       11.3715284122
  H         4.1006691011        4.2044093284       11.3976904344
  C         6.8822618763       15.7603159779       11.4440882270
  H         7.6694985262       14.9979813384       11.4530807687
  C         6.8888838360        4.8831490491        0.5257519527
  H         7.6543970562        4.0975181145        0.5189313328
  C        17.7618907808       15.6982274992        0.5446753401
  H        18.5298392963       14.9154028624        0.5353824102
  C        17.7652224209        4.8869655816       11.3339089484
  H        18.5437151492        4.1145210245       11.3375162449
  C        15.6433982376        6.9943070736       11.3223344787
  H        14.8669580203        7.7688587826       11.3194949412
  C        15.6691428824       17.8360114908        0.5661840135
  H        14.9016277900       18.6194962238        0.5754125956
  C         4.7992447661        7.0270415644        0.5453456835
  H         4.0328764919        7.8115571649        0.5518421937
  C         4.7745942836       17.8784216796       11.4199529257
  H         4.0032819661       18.6580425774       11.4093496379
  C         7.0141453161        7.0660199693       11.3178874886
  H         7.8011191919        7.8267177148       11.2818892974
  C         6.9030941798       17.8598050902        0.6226502002
  H         7.6701107664       18.6439472778        0.6291508224
  C        17.7889354141        7.0188041126        0.5115352281
  H        18.5520468832        7.8064215038        0.5145619254
  C        17.7190029421       17.8042239387       11.3728060479
  H        18.5092445427       18.5648560301       11.3729392083
 Kr         8.6637366776       11.2869569232       11.2961693615
