     409
 i =     176, E =    -5136.5245301325
  N         3.0434572965        5.2141672134       16.0217933368
  C         1.7433684878        5.4824948492       16.2901626778
  N        13.8509904072        5.2141650642        5.2141677147
  C        12.5509012409        5.4825191882        5.4825083158
  N        19.7324347602       17.5617650660       16.0217919297
  C        21.0325182388       17.2934410034       16.2901653074
  N         8.9249508954       17.5617648583        5.2141670135
  C        10.2250409298       17.2934186075        5.4825121462
  N        19.7324342627        5.2141669272        6.7541404155
  C        21.0325181533        5.4825057631        6.4857815727
  N         8.9249496809        5.2141672044       17.5617648441
  C        10.2250397177        5.4825132620       17.2934196051
  N         3.0434595369       17.5617619161        6.7541472831
  C         1.7433707053       17.2934416238        6.4857711220
  N        13.8509880358       17.5617705565       17.5617657377
  C        12.5508991552       17.2934163413       17.2934263364
  N        16.0217922967        3.0434568854        5.2141675986
  C        16.2901572560        1.7433681094        5.4824996291
  N        16.0217914335       13.8509892338       16.0217936801
  C        16.2901419524       12.5509000205       16.2901434492
  N        16.0217898797       19.7324357088       17.5617643519
  C        16.2901577911       21.0325190562       17.2934347062
  N        16.0217967353        8.9249487585        6.7541423112
  C        16.2901410692       10.2250391864        6.4857891945
  N         6.7541428369       19.7324327278        5.2141678282
  C         6.4857852288       21.0325164971        5.4825081179
  N         6.7541426368        8.9249496962       16.0217968425
  C         6.4858002422       10.2250400736       16.2901521185
  N         6.7541427508        3.0434587632       17.5617670620
  C         6.4857830511        1.7433698845       17.2934304474
  N         6.7541467183       13.8509911868        6.7541385499
  C         6.4857884120       12.5509015639        6.4857965131
  N         5.2141721811       16.0217897780        3.0434574294
  C         5.4824925399       16.2901662029        1.7433685645
  N         5.2141671854        5.2141675674       13.8509896394
  C         5.4825167415        5.4825124764       12.5509003777
  N        17.5617622054       16.0217917434       19.7324347011
  C        17.2934344849       16.2901612049       21.0325181998
  N        17.5617605011        5.2141627632        8.9249501063
  C        17.2934224494        5.4825163228       10.2250401084
  N         5.2141698288        6.7541423613       19.7324334995
  C         5.4825080872        6.4857819989       21.0325171552
  N         5.2141699872       17.5617666587        8.9249499134
  C         5.4825142318       17.2934199045       10.2250400596
  N        17.5617559390        6.7541525963        3.0434584586
  C        17.2934468610        6.4857650940        1.7433696131
  N        17.5617641886       17.5617700504       13.8509888691
  C        17.2934205075       17.2934203060       12.5508999318
  N         5.2141738838        3.0434589322        6.7541468498
  C         5.4824946526        1.7433699562        6.4857706792
  N         5.2141649876       13.8509902516       17.5617656096
  C         5.4825132482       12.5509012293       17.2934197175
  N        17.5617568049       19.7324325805        6.7541505932
  C        17.2934448627       21.0325161404        6.4857649040
  N        17.5617628224        8.9249505371       17.5617679848
  C        17.2934211005       10.2250403789       17.2934187846
  N         5.2141697158       19.7324345836       16.0217928573
  C         5.4824943670       21.0325180752       16.2901662198
  N         5.2141714251        8.9249485992        5.2141671184
  C         5.4825126168       10.2250388089        5.4825176043
  N        17.5617610514        3.0434579517       16.0217885662
  C        17.2934384592        1.7433694019       16.2901626021
  N        17.5617629890       13.8509893541        5.2141624110
  C        17.2934276852       12.5509003569        5.4825212802
  N         3.0434572218       16.0217894583       17.5617629607
  C         1.7433686487       16.2901638950       17.2934409032
  N        13.8509912315       16.0217913834        6.7541400154
  C        12.5509019692       16.2901530400        6.4858010680
  N        19.7324351143       16.0217927030        5.2141693678
  C        21.0325187683       16.2901641882        5.4824955988
  N         8.9249495206       16.0217949994       16.0217957191
  C        10.2250396216       16.2901439758       16.2901443973
  N        19.7324327888        6.7541465984       17.5617613320
  C        21.0325164389        6.4857761729       17.2934344146
  N         8.9249480967        6.7541422746        6.7541376908
  C        10.2250385984        6.4857845142        6.4857977503
  N         3.0434606798        6.7541443180        5.2141699021
  C         1.7433717339        6.4857747448        5.4824972882
  N        13.8509900818        6.7541426652       16.0217938934
  C        12.5509008258        6.4857979867       16.2901498433
  N        16.0217910673        5.2141694931       19.7324342857
  C        16.2901633911        5.4824954256       21.0325177105
  N        16.0217925561       16.0217967375        8.9249501169
  C        16.2901454541       16.2901411384       10.2250403244
  N        16.0217856174       17.5617600118        3.0434576877
  C        16.2901691961       17.2934475489        1.7433690362
  N        16.0217918875        6.7541412957       13.8509903718
  C        16.2901512493        6.4858002175       12.5509010750
  N         6.7541465968        5.2141688630        3.0434590977
  C         6.4857764355        5.4824960163        1.7433702201
  N         6.7541438348       16.0217954281       13.8509908104
  C         6.4857955717       16.2901471897       12.5509014076
  N         6.7541474574       17.5617616438       19.7324330046
  C         6.4857722017       17.2934393833       21.0325165509
  N         6.7541430579        6.7541389603        8.9249472512
  C         6.4857929179        6.4857912663       10.2250377457
  N        19.7324340977       17.5617621449        6.7541451751
  C        21.0325177476       17.2934352856        6.4857746484
  N         8.9249494236       17.5617649386       17.5617685947
  C        10.2250392216       17.2934236034       17.2934190199
  N         3.0434604853        5.2141687908        6.7541443513
  C         1.7433715473        5.4824998856        6.4857784737
  N        13.8509891552        5.2141642537       17.5617650798
  C        12.5509002344        5.4825150378       17.2934215515
  N         3.0434572843       17.5617620415       16.0217869957
  C         1.7433686998       17.2934460073       16.2901673996
  N        13.8509903492       17.5617643553        5.2141635077
  C        12.5509014142       17.2934192665        5.4825126766
  N        19.7324337089        5.2141711867       16.0217914636
  C        21.0325173454        5.4824934707       16.2901669553
  N         8.9249499965        5.2141668152        5.2141689792
  C        10.2250401576        5.4825187419        5.4825087964
  N         6.7541450780       19.7324336813       17.5617630783
  C         6.4857775199       21.0325171755       17.2934331145
  N         6.7541394921        8.9249468159        6.7541429990
  C         6.4857982999       10.2250373732        6.4857866492
  N         6.7541450350        3.0434588672        5.2141679613
  C         6.4857856943        1.7433699234        5.4825056344
  N         6.7541417553       13.8509911839       16.0217932514
  C         6.4858008387       12.5509018318       16.2901526867
  N        16.0217838775        3.0434578959       17.5617599776
  C        16.2901664162        1.7433693054       17.2934462130
  N        16.0217956413       13.8509901877        6.7541443102
  C        16.2901422118       12.5509008882        6.4857904571
  N        16.0217936915       19.7324338875        5.2141680155
  C        16.2901559710       21.0325173733        5.4825037426
  N        16.0217933481        8.9249505381       16.0217947365
  C        16.2901400865       10.2250407034       16.2901454938
  N        17.5617616935        6.7541450358       19.7324329750
  C        17.2934333750        6.4857755484       21.0325164873
  N        17.5617654753       17.5617661838        8.9249499747
  C        17.2934173917       17.2934234927       10.2250398687
  N         5.2141707620        6.7541427956        3.0434596095
  C         5.4825042396        6.4857798847        1.7433705312
  N         5.2141634325       17.5617639633       13.8509897025
  C         5.4825194423       17.2934256934       12.5509007144
  N        17.5617625189       16.0217880676        3.0434571967
  C        17.2934379118       16.2901606258        1.7433687372
  N        17.5617649253        5.2141655163       13.8509899654
  C        17.2934168663        5.4825111672       12.5509008605
  N         5.2141676186       16.0217957011       19.7324341780
  C         5.4825010557       16.2901604599       21.0325176507
  N         5.2141716996        5.2141659348        8.9249489911
  C         5.4825147213        5.4825147117       10.2250391827
  N        17.5617572032       19.7324354935       16.0217866084
  C        17.2934456519       21.0325188754       16.2901726877
  N        17.5617595282        8.9249495128        5.2141619012
  C        17.2934299220       10.2250396516        5.4825235012
  N         5.2141685350        3.0434579495       16.0217924235
  C         5.4824904056        1.7433690424       16.2901672419
  N         5.2141686439       13.8509892845        5.2141667833
  C         5.4825194700       12.5509000408        5.4825105823
  N        17.5617600938        3.0434581720        6.7541492570
  C        17.2934422807        1.7433693069        6.4857704899
  N        17.5617659446       13.8509892491       17.5617674940
  C        17.2934182924       12.5509003514       17.2934215293
  N         5.2141742532       19.7324327750        6.7541454591
  C         5.4824955858       21.0325165192        6.4857687782
  N         5.2141696177        8.9249506011       17.5617673857
  C         5.4825110072       10.2250406656       17.2934174121
  N        19.7324342524        6.7541434713        5.2141710017
  C        21.0325181056        6.4857707739        5.4824961803
  N         8.9249486832        6.7541410309       16.0217953310
  C        10.2250390902        6.4857996477       16.2901514747
  N         3.0434581238        6.7541460164       17.5617639387
  C         1.7433693217        6.4857770004       17.2934363805
  N        13.8509923056        6.7541438623        6.7541391337
  C        12.5509027868        6.4857843711        6.4857979996
  N         3.0434585464       16.0217949660        5.2141651254
  C         1.7433697146       16.2901570648        5.4824998551
  N        13.8509879641       16.0217922532       16.0217956342
  C        12.5508987701       16.2901497902       16.2901384629
  N        19.7324347076       16.0217924268       17.5617640180
  C        21.0325182166       16.2901658910       17.2934401297
  N         8.9249498284       16.0217952810        6.7541408839
  C        10.2250402478       16.2901516584        6.4857997110
  N         6.7541471390       17.5617640020        3.0434583020
  C         6.4857816475       17.2934329514        1.7433694562
  N         6.7541426471        6.7541415155       13.8509916246
  C         6.4857915577        6.4857925191       12.5509019684
  N         6.7541469768        5.2141729731       19.7324328060
  C         6.4857704015        5.4824939868       21.0325166683
  N         6.7541437311       16.0217971151        8.9249494333
  C         6.4857990690       16.2901502295       10.2250397896
  N        16.0217866878       17.5617614650       19.7324354614
  C        16.2901696826       17.2934462762       21.0325187083
  N        16.0217938938        6.7541396703        8.9249490793
  C        16.2901483739        6.4857968008       10.2250394710
  N        16.0217916752        5.2141676584        3.0434573489
  C        16.2901559947        5.4825000920        1.7433685324
  N        16.0217910211       16.0217952080       13.8509886658
  C        16.2901422105       16.2901441883       12.5508994477
 Zn        14.6456864393       14.6456882519       14.6456875037
 Br        13.3354207265       13.3354226646       13.3354219255
 Zn        14.6456528062        3.8380691591        3.8380697032
 Br        13.3354178013        2.5277864162        2.5277869722
 Zn         3.8380716261       14.6456527236        3.8380701502
 Br         2.5277898429       13.3354170305        2.5277871640
 Zn         3.8380705495        3.8380704041       14.6456528713
 Br         2.5277884558        2.5277873572       13.3354175271
 Zn         8.1302503196        8.1302506494       14.6456913195
 Br         9.4405169974        9.4405173051       13.3354257761
 Zn         8.1302955197       18.9378505508        3.8380644311
 Br         9.4405264313       20.2481449451        2.5277878514
 Zn        18.9378506580        8.1302932155        3.8380650402
 Br        20.2481445995        9.4405240135        2.5277878582
 Zn        18.9378583057       18.9378598499       14.6456388611
 Br        20.2481460875       20.2481493389       13.3354148490
 Zn         8.1302511674       14.6456912628        8.1302505838
 Br         9.4405181502       13.3354261026        9.4405172899
 Zn         8.1302944872        3.8380645523       18.9378504236
 Br         9.4405248228        2.5277876725       20.2481450929
 Zn        18.9378583782       14.6456392472       18.9378588939
 Br        20.2481460633       13.3354152797       20.2481485085
 Zn        18.9378506141        3.8380648219        8.1302939843
 Br        20.2481437417        2.5277872646        9.4405251886
 Zn        14.6456911893        8.1302501633        8.1302501463
 Br        13.3354255601        9.4405167657        9.4405167901
 Zn        14.6456372067       18.9378603575       18.9378601661
 Br        13.3354129057       20.2481492062       20.2481482488
 Zn         3.8380652532        8.1302940801       18.9378508257
 Br         2.5277888092        9.4405251001       20.2481451883
 Zn         3.8380660332       18.9378505132        8.1302937185
 Br         2.5277895208       20.2481450490        9.4405245363
 Zn        14.6456893066       14.6456890080        8.1302523944
 Br        13.3354232762       13.3354236071        9.4405189334
 Zn        14.6456441770        3.8380627740       18.9378530006
 Br        13.3354140963        2.5277861369       20.2481472458
 Zn         3.8380630273       14.6456463774       18.9378525288
 Br         2.5277862618       13.3354170176       20.2481473815
 Zn         3.8380731751        3.8380712788        8.1302868353
 Br         2.5277909592        2.5277886795        9.4405235974
 Zn         8.1302499193        8.1302482446        8.1302485710
 Br         9.4405162927        9.4405153148        9.4405151113
 Zn         8.1303014867       18.9378589541       18.9378581586
 Br         9.4405260946       20.2481480317       20.2481468524
 Zn        18.9378566895        8.1303016014       18.9378574773
 Br        20.2481439934        9.4405273176       20.2481468448
 Zn        18.9378578167       18.9378572821        8.1303011441
 Br        20.2481452798       20.2481467286        9.4405266348
 Zn        14.6456885201        8.1302524285       14.6456889203
 Br        13.3354226108        9.4405192430       13.3354236429
 Zn        14.6456454769       18.9378526631        3.8380626588
 Br        13.3354159931       20.2481469351        2.5277854526
 Zn         3.8380736032        8.1302863347        3.8380719612
 Br         2.5277915603        9.4405227824        2.5277888675
 Zn         3.8380632891       18.9378529779       14.6456454231
 Br         2.5277865916       20.2481475932       13.3354157491
 Zn         8.1302523925       14.6456897121       14.6456895273
 Br         9.4405192113       13.3354242680       13.3354237963
 Zn         8.1302886880        3.8380708665        3.8380712143
 Br         9.4405255313        2.5277883601        2.5277889584
 Zn        18.9378527116       14.6456455657        3.8380629499
 Br        20.2481465940       13.3354155244        2.5277858757
 Zn        18.9378515821        3.8380631102       14.6456460225
 Br        20.2481452356        2.5277857414       13.3354160086
 Zn         5.9841789324        5.9841795069       16.7917443945
 Zn        16.7917429043       16.7917449459       16.7917444352
 Zn        16.7917443204        5.9841783310        5.9841789713
 Zn         5.9841803509       16.7917438750        5.9841789173
 Zn         5.9841805608        5.9841783067        5.9841790365
 Zn        16.7917442889       16.7917438346        5.9841787713
 Zn         5.9841789545       16.7917448602       16.7917443521
 Zn        16.7917428946        5.9841793636       16.7917444763
  N         3.7818830504        5.9841721910       16.7917623114
  N        14.5894193164        5.9841527704        5.9841551639
  N        18.9940039872       16.7917587183       16.7917578912
  N         8.1865193889       16.7917750293        5.9841496790
  N        18.9940033198        5.9841672116        5.9841676898
  N         8.1865181351        5.9841502924       16.7917754452
  N         3.7818845196       16.7917620581        5.9841717704
  N        14.5894160932       16.7917805592       16.7917798907
  N        16.7917643472        3.7818828435        5.9841694161
  N        16.7917781841       14.5894174054       16.7917795429
  N        16.7917593102       18.9940049508       16.7917612347
  N        16.7917769192        8.1865179649        5.9841517086
  N         5.9841679410       18.9940019546        5.9841660711
  N         5.9841478473        8.1865192024       16.7917730106
  N         5.9841736136        3.7818839107       16.7917610114
  N         5.9841538203       14.5894183277        5.9841565729
  N         5.9841725499       16.7917632529        3.7818832678
  N         5.9841548617        5.9841545840       14.5894189674
  N        16.7917585865       16.7917610051       18.9940045537
  N        16.7917777294        5.9841524028        8.1865185332
  N         5.9841658552        5.9841654345       18.9940025561
  N         5.9841492124       16.7917732452        8.1865185940
  N        16.7917683699        5.9841648041        3.7818833765
  N        16.7917801646       16.7917784529       14.5894171001
  N         5.9841674915        3.7818843260        5.9841653906
  N         5.9841511428       14.5894188920       16.7917764188
  N        16.7917658451       18.9940024823        5.9841678730
  N        16.7917791025        8.1865194134       16.7917787445
  N         5.9841716973       18.9940032941       16.7917628598
  N         5.9841573106        8.1865164890        5.9841532735
  N        16.7917610788        3.7818834193       16.7917628140
  N        16.7917756906       14.5894179457        5.9841504862
  N         3.7818827537       16.7917620147       16.7917613129
  N        14.5894188156       16.7917772342        5.9841519791
  N        18.9940036650       16.7917629968        5.9841708485
  N         8.1865184484       16.7917821591       16.7917782909
  N        18.9940022728        5.9841695397       16.7917649549
  N         8.1865179542        5.9841525273        5.9841554138
  N         3.7818860841        5.9841648844        5.9841655494
  N        14.5894176131        5.9841506526       16.7917757888
  N        16.7917612619        5.9841715246       18.9940030734
  N        16.7917805063       16.7917783817        8.1865187702
  N        16.7917621871       16.7917618390        3.7818827634
  N        16.7917745148        5.9841504931       14.5894185864
  N         5.9841683937        5.9841653316        3.7818849424
  N         5.9841512826       16.7917765811       14.5894185468
  N         5.9841712484       16.7917640960       18.9940028888
  N         5.9841543074        5.9841555711        8.1865171328
  C        11.3879691368       15.7531197103       15.7531218354
  H        11.3879692632       14.9862988958       14.9862982893
  C        11.3879706371        4.9454855466        4.9454928386
  H        11.3879707693        4.1786653955        4.1786664398
  C         0.5804477364       15.7531440933        4.9454620918
  H         0.5804481159       14.9863202947        4.1786411701
  C         0.5804463991        4.9454644857       15.7531425074
  H         0.5804467456        4.1786411037       14.9863211733
  C        11.3879699018        7.0228195027       15.7531262194
  H        11.3879701019        7.7896432198       14.9863054397
  C        11.3879710794       17.8304505546        4.9454948032
  H        11.3879712748       18.5972707276        4.1786682849
  C         0.5804484169        7.0227988149        4.9454723808
  H         0.5804488975        7.7896194649        4.1786481823
  C         0.5804469593       17.8304749378       15.7531456251
  H         0.5804473925       18.5972970716       14.9863228987
  C        11.3879710476       15.7531249621        7.0228181218
  H        11.3879712236       14.9863053660        7.7896430107
  C        11.3879698819        4.9454943496       17.8304499879
  H        11.3879700222        4.1786687247       18.5972710590
  C         0.5804469438       15.7531476570       17.8304754549
  H         0.5804474141       14.9863236937       18.5972963430
  C         0.5804483633        4.9454678165        7.0227956852
  H         0.5804487912        4.1786473999        7.7896201309
  C        11.3879706114        7.0228162171        7.0228096745
  H        11.3879706928        7.7896348455        7.7896356737
  C        11.3879691344       17.8304475109       17.8304444192
  H        11.3879692462       18.5972700338       18.5972687270
  C         0.5804463843        7.0227941868       17.8304684802
  H         0.5804467388        7.7896187476       18.5972889216
  C         0.5804477272       17.8304665417        7.0227953832
  H         0.5804481183       18.5972889665        7.7896179565
  C        15.7531188823       11.3879702636       15.7531199183
  H        14.9862965997       11.3879703871       14.9862978199
  C        15.7531459816        0.5804463292        4.9454599570
  H        14.9863203089        0.5804467755        4.1786409105
  C         4.9454920892       11.3879693392        4.9454890192
  H         4.1786688756       11.3879694338        4.1786656739
  C         4.9454666914        0.5804471450       15.7531403685
  H         4.1786424297        0.5804476102       14.9863199502
  C        15.7531302347       11.3879699428        7.0228236704
  H        14.9863046155       11.3879701748        7.7896425849
  C        15.7531447303        0.5804477738       17.8304754368
  H        14.9863209801        0.5804483438       18.5972965374
  C         4.9454959522       11.3879708866       17.8304515760
  H         4.1786689387       11.3879711667       18.5972712591
  C         4.9454766804        0.5804468479        7.0228018184
  H         4.1786502190        0.5804473517        7.7896201814
  C         7.0228188057       11.3879709006       15.7531255206
  H         7.7896432849       11.3879711793       14.9863054880
  C         7.0227960000        0.5804467818        4.9454668614
  H         7.7896223379        0.5804472545        4.1786483641
  C        17.8304441776       11.3879699350        4.9454887061
  H        18.5972703259       11.3879701647        4.1786681681
  C        17.8304710192        0.5804477233       15.7531446115
  H        18.5972940415        0.5804482135       14.9863228239
  C         7.0228151694       11.3879694272        7.0228134245
  H         7.7896371393       11.3879695912        7.7896361107
  C         7.0227920974        0.5804471373       17.8304707401
  H         7.7896183718        0.5804476062       18.5972894437
  C        17.8304425402       11.3879703149       17.8304466087
  H        18.5972664079       11.3879705410       18.5972695770
  C        17.8304626906        0.5804462803        7.0227988606
  H        18.5972883028        0.5804466678        7.7896181826
  C        15.7531179617       15.7531216401       11.3879697730
  H        14.9862967969       14.9862984047       11.3879699240
  C        15.7531439476        4.9454612188        0.5804467146
  H        14.9863204226        4.1786400294        0.5804472875
  C         4.9454657562       15.7531422423        0.5804467041
  H         4.1786435058       14.9863198056        0.5804472259
  C         4.9454912092        4.9454890534       11.3879696766
  H         4.1786680757        4.1786656264       11.3879698389
  C         7.0228218078       15.7531279013       11.3879706479
  H         7.7896441000       14.9863056704       11.3879710996
  C         7.0228018161        4.9454729635        0.5804467482
  H         7.7896213137        4.1786476287        0.5804468584
  C        17.8304758143       15.7531485388        0.5804467728
  H        18.5972949104       14.9863228277        0.5804468357
  C        17.8304480362        4.9454931150       11.3879705392
  H        18.5972691987        4.1786675890       11.3879709831
  C        15.7531247567        7.0228188104       11.3879701071
  H        14.9863044786        7.7896430656       11.3879702586
  C        15.7531421625       17.8304718870        0.5804476968
  H        14.9863221852       18.5972967521        0.5804486561
  C         4.9454699176        7.0227952996        0.5804476694
  H         4.1786503437        7.7896205531        0.5804486610
  C         4.9454944845       17.8304495368       11.3879702136
  H         4.1786698190       18.5972715630       11.3879702717
  C         7.0228150567        7.0228126977       11.3879698211
  H         7.7896368313        7.7896355790       11.3879701338
  C         7.0227957963       17.8304678653        0.5804465506
  H         7.7896196978       18.5972889345        0.5804469113
  C        17.8304644327        7.0227963386        0.5804465719
  H        18.5972883657        7.7896173412        0.5804470421
  C        17.8304442962       17.8304457433       11.3879698485
  H        18.5972674228       18.5972694436       11.3879701087
 Kr         0.0000000000       10.8075000000       10.8075000000
