     409
 i =     176, E =    -5136.6935716434
  N         2.9613691633        5.2405551682       15.9678316872
  C         1.6402857141        5.4944620693       16.2383026331
  N        13.8080618133        5.0880729497        5.0882291537
  C        12.4843179108        5.3448632853        5.3454427169
  N        19.5878978259       17.5389653144       15.9838270118
  C        20.9048420734       17.2843367344       16.2688019835
  N         8.8189375246       17.5955171022        5.2014746538
  C        10.1351099898       17.2887725251        5.4385436631
  N        19.6482773375        5.1800722021        6.7364982091
  C        20.9657505761        5.4620411433        6.4782418784
  N         8.8191576688        5.2009368335       17.5960543802
  C        10.1353277819        5.4378520705       17.2891155680
  N         2.9450065335       17.5410626144        6.7778542481
  C         1.6306619831       17.2632586950        6.5005006543
  N        13.7441835325       17.6071206852       17.6071921464
  C        12.4184883020       17.3547039553       17.3548139886
  N        15.9922759194        2.9793403274        5.1278892078
  C        16.2530296024        1.6651357337        5.4162317194
  N        15.8367282806       13.8550626984       16.0190238188
  C        16.1141950141       12.5345554330       16.2757738255
  N        15.9310318352       19.7257048069       17.5699558556
  C        16.2052171311       21.0399471919       17.2887809700
  N        15.9063139697        8.8432984617        6.6869566343
  C        16.1832478982       10.1642456567        6.4348602936
  N         6.6232468497       19.6968825688        5.1971075864
  C         6.3475737464       21.0133994266        5.4546011141
  N         6.6095119759        8.9555517902       16.0350275695
  C         6.3321422088       10.2744975013       16.3059072815
  N         6.6561729625        3.0924258058       17.5376185737
  C         6.3717652432        1.7770478729       17.2809661247
  N         6.7106360913       13.8125292281        6.8522327804
  C         6.4467495382       12.4966400331        6.5530616746
  N         5.1201934971       15.9626114754        3.0936964413
  C         5.3681997014       16.2536846287        1.7755694437
  N         5.1518099150        5.2978730804       13.8371348434
  C         5.4269880295        5.5426692385       12.5161827941
  N        17.4645473247       15.9935247340       19.7087392506
  C        17.2080281524       16.2605069083       21.0296318732
  N        17.4728102589        5.1425140912        8.8561119772
  C        17.2047108127        5.4245418281       10.1711876089
  N         5.0787982837        6.7628342725       19.7056491888
  C         5.3413816713        6.4789178040       21.0209634887
  N         5.0619242522       17.5961551709        8.9457307885
  C         5.3205558633       17.3253279481       10.2656628142
  N        17.5234864946        6.7066256705        2.9904838116
  C        17.2528950354        6.4471502886        1.6707098406
  N        17.4211046142       17.5457625950       13.8482921475
  C        17.1487802773       17.2721645846       12.5325301167
  N         5.0811505616        3.0199483078        6.7216527649
  C         5.3413489704        1.6993385044        6.4591301924
  N         5.0416924276       13.9052879660       17.6309123237
  C         5.3089364389       12.5897459337       17.3445115848
  N        17.4894338602       19.6713950598        6.7571290188
  C        17.2356388248       20.9893769211        6.4723882337
  N        17.4562211148        8.8964643404       17.5112607895
  C        17.1652320659       10.2122166928       17.2561959942
  N         5.0487225365       19.7768139616       16.0557865443
  C         5.3353423238       21.0952491329       16.3018547164
  N         5.1452365734        8.8852466764        5.1695690166
  C         5.4207517208       10.1951540853        5.4737901109
  N        17.4917569883        3.0277210956       15.9674366762
  C        17.2210812865        1.7112980317       16.2464204024
  N        17.4900016297       13.8098175209        5.1843840317
  C        17.2154192783       12.4916186378        5.4458268409
  N         2.9007847812       16.0551325694       17.6110445144
  C         1.5840013758       16.3036882306       17.3192682239
  N        13.7661095634       15.9290054472        6.6701211978
  C        12.4512261984       16.2103565345        6.3966895845
  N        19.6417400526       15.9622228564        5.1984555971
  C        20.9579976247       16.2356065510        5.4751134759
  N         8.7510839621       16.1085826855       16.1088084135
  C        10.0737041386       16.3665869479       16.3668034116
  N        19.6310871789        6.7542781457       17.5189179866
  C        20.9501780127        6.4883496192       17.2539796092
  N         8.8358482185        6.6127849238        6.6139203890
  C        10.1531526986        6.3449936865        6.3462390785
  N         2.9645838792        6.7583708580        5.2027606457
  C         1.6468518422        6.4887731602        5.4735620938
  N        13.7662201932        6.6695690712       15.9290866477
  C        12.4513776162        6.3959170398       16.2104166785
  N        15.9555847701        5.1815285672       19.6721189480
  C        16.2347223967        5.4424828848       20.9881381763
  N        15.8710587540       15.9841038487        8.8893763739
  C        16.1304878669       16.2595610965       10.2098937832
  N        15.9470630535       17.5338456335        3.0380132200
  C        16.2140122337       17.2704382931        1.7195287514
  N        15.9345710522        6.7405366376       13.8048267329
  C        16.1987563195        6.4602334600       12.4874235830
  N         6.6112300865        5.1396545527        2.9994515815
  C         6.3415936982        5.4283213446        1.6879922009
  N         6.5937554487       16.0732677878       13.9211647858
  C         6.3214151253       16.3264496667       12.5997707329
  N         6.5924040796       17.6251512805       19.7841942704
  C         6.3417844472       17.3269139730       21.0992829594
  N         6.7227937675        6.7019195259        8.8440519770
  C         6.4500040196        6.4774900340       10.1696570644
  N        19.6309862960       17.5186986853        6.7543337295
  C        20.9500930730       17.2538437846        6.4883746765
  N         8.7773041471       17.6629734399       17.6629615911
  C        10.0926001319       17.3823190634       17.3824033781
  N         2.9647143211        5.2024862448        6.7591257320
  C         1.6469088673        5.4730775659        6.4895032787
  N        13.7794853027        5.1700522910       17.5388860496
  C        12.4586578792        5.4207713772       17.2635725488
  N         2.9007737816       17.6110443194       16.0551287375
  C         1.5839869522       17.3192552105       16.3037046150
  N        13.7792510562       17.5384745334        5.1702420245
  C        12.4584381292       17.2632766319        5.4212595459
  N        19.6418122276        5.1984484184       15.9623784142
  C        20.9580795214        5.4751394689       16.2356994462
  N         8.8373843307        5.0602382706        5.0602594227
  C        10.1576031961        5.3298161185        5.3303664695
  N         6.5923426870       19.7842532152       17.6251103661
  C         6.3417021883       21.0993231139       17.3268585336
  N         6.7211249692        8.8436595534        6.7005323684
  C         6.4485726485       10.1693410370        6.4761453872
  N         6.6114221991        2.9995040910        5.1398380522
  C         6.3417335153        1.6880221204        5.4284815531
  N         6.5936883492       13.9211172260       16.0731016021
  C         6.3211654654       12.5997810469       16.3263542172
  N        15.9471645123        3.0379110248       17.5340695616
  C        16.2140607571        1.7194370563       17.2705987511
  N        15.9344227346       13.8046376689        6.7405897361
  C        16.1985773220       12.4872217216        6.4603035145
  N        15.9554043365       19.6718350394        5.1816601866
  C        16.2345704828       20.9878548909        5.4425867273
  N        15.8710126603        8.8892138727       15.9843689846
  C        16.1304718368       10.2097444226       16.2597572071
  N        17.4895354172        6.7570715210       19.6716938227
  C        17.2357469166        6.4723264169       20.9896767445
  N        17.4561930954       17.5110567246        8.8965787632
  C        17.1652106858       17.2560354093       10.2123394561
  N         5.0805713508        6.7211241396        3.0198596308
  C         5.3410275461        6.4587794905        1.6992741385
  N         5.0416266325       17.6309386979       13.9051178898
  C         5.3090630424       17.3445138876       12.5896027612
  N        17.4916634417       15.9672141941        3.0277963425
  C        17.2210339033       16.2462632118        1.7113810429
  N        17.4900503921        5.1842470375       13.8100620050
  C        17.2155239274        5.4456857334       12.4918464237
  N         5.0487391478       16.0558841302       19.7767724783
  C         5.3353763101       16.3019511656       21.0951914106
  N         5.1468843369        5.1709589788        8.8852732220
  C         5.4221906939        5.4750792343       10.1952647223
  N        17.4645330048       19.7086669834       15.9936111697
  C        17.2080229389       21.0295572779       16.2606030782
  N        17.4727441245        8.8558702899        5.1428954437
  C        17.2045771105       10.1709617574        5.4247835318
  N         5.1202965257        3.0938346460       15.9624256719
  C         5.3682000884        1.7756630790       16.2535238998
  N         5.1508315708       13.8370886834        5.2970160017
  C         5.4258413881       12.5160915893        5.5416442991
  N        17.5233915294        2.9901411111        6.7067510917
  C        17.2527835820        1.6703918337        6.4472331507
  N        17.4211542443       13.8481689697       17.5458442869
  C        17.1488230616       12.5324069786       17.2722681867
  N         5.0788624173       19.7056427938        6.7629555444
  C         5.3414822265       21.0209721342        6.4790699813
  N         5.0616547501        8.9459074160       17.5965672115
  C         5.3202539168       10.2658074903       17.3255306365
  N        19.6483045781        6.7360130006        5.1805145405
  C        20.9657557044        6.4777026589        5.4625039711
  N         8.8091433707        6.7010686706       15.9889336025
  C        10.1293378830        6.4151153090       16.2365764184
  N         2.9450755147        6.7779007095       17.5411069820
  C         1.6307504332        6.5005134324       17.2632827092
  N        13.7827160537        6.6439693543        6.6448899930
  C        12.4714028976        6.3597332514        6.3609024205
  N         2.9612390208       15.9680041780        5.2402804254
  C         1.6401899579       16.2383865535        5.4943335871
  N        13.7060011960       16.0508871202       16.0510758201
  C        12.3952295153       16.3392710547       16.3394691924
  N        19.5879140054       15.9837480085       17.5390222083
  C        20.9048540131       16.2687417658       17.2843843606
  N         8.8089853650       15.9887520438        6.7020594372
  C        10.1291745360       16.2364870868        6.4161021666
  N         6.6562541393       17.5375901990        3.0924158961
  C         6.3718661378       17.2810230286        1.7770105331
  N         6.7116090795        6.8531896453       13.8129175477
  C         6.4479112558        6.5541743775       12.4969769955
  N         6.6232347362        5.1970178037       19.6969202386
  C         6.3475252268        5.4545154372       21.0134105573
  N         6.6099574469       16.0346989023        8.9555548513
  C         6.3325482321       16.3057841399       10.2744644828
  N        15.9310407681       17.5698741241       19.7257863233
  C        16.2052225501       17.2886830833       21.0400290225
  N        15.9066300137        6.6868540042        8.8434885090
  C        16.1835185936        6.4347598655       10.1644415184
  N        15.9923930295        5.1277185355        2.9795975965
  C        16.2531621195        5.4161168206        1.6654103694
  N        15.8366913230       16.0189111027       13.8552070574
  C        16.1141679883       16.2756492436       12.5347009857
 Zn        14.5408703305       14.7455183109       14.7457299993
 Br        13.2490733965       13.4186957075       13.4189610047
 Zn        14.7093265087        3.8107524613        3.8108958471
 Br        13.4087460387        2.4895181148        2.4896180635
 Zn         3.8489027655       14.6679487034        3.9819856222
 Br         2.5547434604       13.3280541451        2.6721436515
 Zn         3.8493603159        3.9827857744       14.6677352965
 Br         2.5555194601        2.6729999500       13.3274650573
 Zn         7.9607662211        8.1014615387       14.8049668468
 Br         9.5145636275        9.6013097176       14.1001854161
 Zn         7.9416334210       18.8653560489        3.9134103915
 Br         9.2442977845       20.1731746253        2.5851920915
 Zn        18.7879757505        8.0104479065        3.8674944840
 Br        20.1068254492        9.3350413623        2.5663954289
 Zn        18.7290126445       18.8301304811       14.6917086202
 Br        20.0501202623       20.1358227127       13.3738863908
 Zn         7.9601200963       14.8030153194        8.1010962412
 Br         9.5118501356       14.0903260519        9.5991421759
 Zn         7.9415279468        3.9129824958       18.8657215914
 Br         9.2440752739        2.5847167907       20.1735441527
 Zn        18.7290375190       14.6915975533       18.8301876091
 Br        20.0501806820       13.3738166869       20.1358804836
 Zn        18.7878553243        3.8667538765        8.0106537989
 Br        20.1069651919        2.5659195987        9.3352337332
 Zn        14.6083669415        7.9530625540        7.9533134562
 Br        13.3242251725        9.2825995937        9.2835908623
 Zn        14.6495211289       18.8832808520       18.8833494331
 Br        13.3637945356       20.2128054508       20.2128757585
 Zn         3.7780953780        8.0587792690       18.8689944555
 Br         2.4467597560        9.3410075153       20.1975098918
 Zn         3.7782322435       18.8687294282        8.0587965052
 Br         2.4470345200       20.1973936540        9.3410766132
 Zn        14.6125656735       14.6667472725        8.0058406570
 Br        13.3254944330       13.3228911794        9.3180976311
 Zn        14.6552536770        3.8927724834       18.8285623765
 Br        13.3422474339        2.5814742798       20.1486201014
 Zn         3.7486025623       14.7684428561       18.9197951551
 Br         2.4388874376       13.4497391703       20.2349537608
 Zn         3.8255499583        3.8960360828        8.0413132827
 Br         2.5084757003        2.5981254930        9.3668419405
 Zn         8.0153736761        7.9042965345        7.9029105602
 Br         9.5011811537        9.1190794348        9.1003806136
 Zn         7.8839952854       18.9395420418       18.9394936823
 Br         9.1792108774       20.2626317381       20.2626212732
 Zn        18.7666848564        8.0560295784       18.7999928092
 Br        20.0742904157        9.3738212138       20.1177400978
 Zn        18.7666420112       18.7996691537        8.0560774294
 Br        20.0742125964       20.1175496633        9.3738020259
 Zn        14.6125922044        8.0056192558       14.6669772775
 Br        13.3253660360        9.3176537797       13.3231030700
 Zn        14.6550760855       18.8282679324        3.8929168110
 Br        13.3420916257       20.1483587302        2.5816409196
 Zn         3.8240674932        8.0403621930        3.8955443233
 Br         2.5068256012        9.3653406193        2.5972116707
 Zn         3.7485421155       18.9197793241       14.7683712851
 Br         2.4388115578       20.2351015888       13.4498306038
 Zn         7.8874737890       14.8245172765       14.8244746245
 Br         9.3248233342       13.5882830246       13.5860340932
 Zn         7.8995901746        3.7998854944        3.7998383305
 Br         9.1519064517        2.4579657491        2.4580391629
 Zn        18.7812608248       14.6735841442        3.8946819802
 Br        20.1121736683       13.3786484732        2.5764980032
 Zn        18.7813237271        3.8946213764       14.6737983277
 Br        20.1123090461        2.5764525202       13.3789006580
 Zn         5.8900170629        6.0188291937       16.7819423163
 Zn        16.6579799796       16.7802818913       16.7803603562
 Zn        16.7212315648        5.9095650365        5.9098377479
 Zn         5.8899137608       16.7815515787        6.0188222088
 Zn         5.8922973585        5.9094684775        5.9091369275
 Zn        16.7081962103       16.7344721440        5.9606124653
 Zn         5.8264766874       16.8651642981       16.8650919788
 Zn        16.7082816937        5.9605338368       16.7348412631
  N         3.7003361914        6.0155448051       16.7561855407
  N        14.5416982729        5.8725284718        5.8728764994
  N        18.8410815283       16.7539481839       16.7540312172
  N         8.0684705380       16.8090707256        5.9673990074
  N        18.9020058018        5.9512903086        5.9517466768
  N         8.0686511311        5.9666909431       16.8095569999
  N         3.7002297213       16.7562495576        6.0153374803
  N        14.4715959305       16.8196719537       16.8197883128
  N        16.7595921519        3.7315478078        5.9100744809
  N        16.6282382020       14.5980408831       16.7868852450
  N        16.6927354377       18.9701184657       16.7850746856
  N        16.6880610000        8.1026287993        5.9073103517
  N         5.8552081635       18.9544329511        5.9875807109
  N         5.8421266136        8.2047127736       16.8169002165
  N         5.8974990048        3.8398009457       16.7424648627
  N         5.9264032153       14.5720179124        6.0856905678
  N         5.8974300919       16.7424907448        3.8397317861
  N         5.9272762473        6.0864673880       14.5722011637
  N        16.6927499736       16.7849945721       18.9701945805
  N        16.6882191425        5.9070350297        8.1028527007
  N         5.8551829046        5.9874813250       18.9544545086
  N         5.8424492342       16.8164110695        8.2046440121
  N        16.7596916547        5.9099003687        3.7318357221
  N        16.6282045834       16.7868058900       14.5981695483
  N         5.8493519316        3.7551735861        5.9235683023
  N         5.8198829656       14.6606606457       16.8610946187
  N        16.7155126588       18.9244450369        5.9752092767
  N        16.6731615300        8.1463861104       16.7419705482
  N         5.8109372580       19.0348621888       16.8535051478
  N         5.9327357738        8.1172815005        5.9149837377
  N        16.7199055209        3.7794309863       16.7471786230
  N        16.7138485349       14.5536643378        5.9668287779
  N         3.6472799633       16.8444365122       16.8444175206
  N        14.5197164333       16.7336629481        5.9273897930
  N        18.8900251662       16.7380959311        5.9740030269
  N         8.0176332810       16.8906970018       16.8907679340
  N        18.8901124821        5.9739447937       16.7383123153
  N         8.0895380170        5.8379338065        5.8382714900
  N         3.7111641797        5.9788606492        5.9793432957
  N        14.5198869511        5.9271433233       16.7339774273
  N        16.7156626771        5.9751128630       18.9247375530
  N        16.6731707743       16.7417084459        8.1465210047
  N        16.7197759747       16.7469246063        3.7795190868
  N        16.7139376311        5.9667206504       14.5538897108
  N         5.8488851764        5.9231541445        3.7550999011
  N         5.8198006296       16.8611948092       14.6605902804
  N         5.8109852375       16.8535923019       19.0348095044
  N         5.9344765999        5.9162877318        8.1174942143
  C        11.2225130047       15.8044592933       15.8047318927
  H        11.2002543083       15.0292989575       15.0295950277
  C        11.3277648742        4.7878395269        4.7881242709
  H        11.3405328005        4.0127173984        4.0124951941
  C         0.4842759149       15.6848667870        4.9375749561
  H         0.4909700617       14.9055762667        4.1660384885
  C         0.4843553346        4.9376786303       15.6848384360
  H         0.4910016899        4.1661742797       14.9055141253
  C        11.2892409338        6.9242925140       15.6474240947
  H        11.2870523003        7.6757734042       14.8501821195
  C        11.2992358742       17.8427832477        4.8979836126
  H        11.3026271470       18.6471316617        4.1526345305
  C         0.4862070362        7.0343521313        4.9197435432
  H         0.4856592175        7.8089349215        4.1432215049
  C         0.4245421490       17.8509404327       15.7352453390
  H         0.4244025424       18.6264869827       14.9597271112
  C        11.2891270159       15.6475531214        6.9254265891
  H        11.2869291086       14.8504020595        7.6770313766
  C        11.2995045558        4.8974966140       17.8432099593
  H        11.3029760961        4.1523486226       18.6477319568
  C         0.4245710928       15.7352000715       17.8509666629
  H         0.4244568324       14.9596743156       18.6265029096
  C         0.4861841081        4.9193556702        7.0350607872
  H         0.4855267637        4.1429564289        7.8097418249
  C        11.3066122128        6.9004581895        6.9021410023
  H        11.2936877845        7.6754336398        7.6771456844
  C        11.2683736707       17.9177787061       17.9178274251
  H        11.2885465318       18.6931503480       18.6931254347
  C         0.4654342679        7.0401406182       17.8122619814
  H         0.4583566082        7.8105953367       18.5928737634
  C         0.4653286796       17.8121389340        7.0401853270
  H         0.4582144730       18.5927061154        7.8106953158
  C        15.5618966373       11.3718973502       15.7298630517
  H        14.7739511088       11.3723962244       14.9671132924
  C        15.7023645085        0.5045314457        4.8706084521
  H        14.9379628942        0.5017212310        4.0841018737
  C         4.8700577745       11.3720062109        4.9641148032
  H         4.0890736132       11.3994086330        4.1941230030
  C         4.8079860650        0.6118947604       15.7214903332
  H         4.0400210142        0.6051123638       14.9386837762
  C        15.6401687539       11.3233201340        6.9958420488
  H        14.8632689351       11.3210343413        7.7699592859
  C        15.6661974950        0.5658859710       17.8359278575
  H        14.8986752505        0.5752767281       18.6193910300
  C         4.7663539238       11.4208209853       17.8848086215
  H         3.9956856519       11.4098798867       18.6647986718
  C         4.7964455086        0.5449139007        7.0256484135
  H         4.0296210681        0.5512233445        7.8097899535
  C         6.8711484370       11.4452082358       15.7641115680
  H         7.6552090590       11.4550092190       14.9982742169
  C         6.8876548236        0.5256872553        4.8831293519
  H         7.6535283111        0.5189784431        4.0978648525
  C        17.7618312253       11.3338189337        4.8879489243
  H        18.5402416336       11.3369555985        4.1153595955
  C        17.7591647396        0.5442228966       15.6985416211
  H        18.5272463403        0.5348060950       14.9158033601
  C         7.0013985880       11.3159038893        7.0570689074
  H         7.7879554932       11.2773122320        7.8186261997
  C         6.9014803790        0.6216844993       17.8592126071
  H         7.6688758574        0.6280077455       18.6429348371
  C        17.7161707452       11.3724934344       17.8039495880
  H        18.5062767537       11.3730183939       18.5647445748
  C        17.7861560813        0.5119863838        7.0181637848
  H        18.5495407737        0.5151848512        7.8055525241
  C        15.5619026705       15.7296938170       11.3720496329
  H        14.7739778062       14.9669236324       11.3725391459
  C        15.7025230289        4.8704911827        0.5047994807
  H        14.9381360302        4.0839645258        0.5019688098
  C         4.8079709566       15.7216412724        0.6118211915
  H         4.0399708578       14.9388671694        0.6050759459
  C         4.8713695676        4.9653014195       11.3719716321
  H         4.0903558464        4.1952656237       11.3991384544
  C         6.8715888839       15.7642077173       11.4452575507
  H         7.6556578013       14.9983587742       11.4551756008
  C         6.8876551728        4.8830622840        0.5256779274
  H         7.6535954441        4.0978782652        0.5189816968
  C        17.7591527061       15.6984234668        0.5442976621
  H        18.5272349888       14.9156892964        0.5348778867
  C        17.7619040445        4.8877183979       11.3340783099
  H        18.5402553595        4.1150704103       11.3372632461
  C        15.6404525602        6.9958133844       11.3234902791
  H        14.8636112578        7.7699894110       11.3211413884
  C        15.6661841436       17.8358047006        0.5659763723
  H        14.8986630344       18.6192666808        0.5753720463
  C         4.7961742056        7.0253744196        0.5448769596
  H         4.0292783427        7.8094475437        0.5511939811
  C         4.7665458130       17.8846714731       11.4205988794
  H         3.9958019353       18.6646019833       11.4095459576
  C         7.0025996297        7.0583283614       11.3163039958
  H         7.7888632146        7.8202084233       11.2780655235
  C         6.9016112981       17.8592265743        0.6216393247
  H         7.6690591502       18.6429010729        0.6279561331
  C        17.7862392824        7.0181126052        0.5122996669
  H        18.5495925460        7.8055298978        0.5154957077
  C        17.7161238456       17.8038359668       11.3726078757
  H        18.5062149355       18.5646479916       11.3731184175
 Kr        10.5152283892       11.3322194269       11.3382948722
