     409
 i =     176, E =    -5136.6823235000
  N         2.8513525377        5.2115855106       16.0196046583
  C         1.5356656476        5.4843033807       16.2919300414
  N        13.6528381713        5.2024343168        5.2024756571
  C        12.3387110441        5.4766246787        5.4766438283
  N        19.5384662141       17.5648597157       16.0055754764
  C        20.8550089118       17.2943570426       16.2809418055
  N         8.7125448416       17.5738419488        5.2071338677
  C        10.0271926856       17.2994170668        5.4786979189
  N        19.5198403967        5.1973095359        6.7566218366
  C        20.8362212057        5.4731529979        6.4865775041
  N         8.7123496636        5.2071722715       17.5737993549
  C        10.0270128744        5.4787204809       17.2993928815
  N         2.8504716710       17.5788410113        6.7706903939
  C         1.5346449809       17.3045892288        6.4967225565
  N        13.6746628167       17.5689119291       17.5689535843
  C        12.3595654588       17.2971249863       17.2971453169
  N        15.7996297555        3.0457090526        5.2007309720
  C        16.0733666956        1.7298252800        5.4742599731
  N        15.8191287367       13.8592610764       16.0084953175
  C        16.0911022638       12.5445247598       16.2814111178
  N        15.8240328299       19.7230895127       17.5684783803
  C        16.0934278412       21.0402067743       17.2954288087
  N        15.8066678296        8.9084162604        6.7592426437
  C        16.0804662825       10.2225072909        6.4859020779
  N         6.5640970000       19.7345799538        5.2098454918
  C         6.2883680864       21.0505315018        5.4832764449
  N         6.5653856851        8.9167872691       16.0165325370
  C         6.2937049875       10.2314365103       16.2898242344
  N         6.5614826240        3.0560418031       17.5767318997
  C         6.2886390633        1.7402171035       17.3034172012
  N         6.5618243074       13.8675635749        6.7678157920
  C         6.2873290493       12.5533809863        6.4948410004
  N         5.0014688629       16.0185950526        3.0553573334
  C         5.2755658814       16.2916920960        1.7395441141
  N         5.0016650293        5.2102264534       13.8690260440
  C         5.2736163833        5.4829450877       12.5542080792
  N        17.3822045378       16.0076641218       19.7247276448
  C        17.1060321532       16.2810299684       21.0407691534
  N        17.3642138880        5.1990249930        8.9068703561
  C        17.0923677119        5.4721330389       10.2216812452
  N         5.0057621235        6.7705190144       19.7329089398
  C         5.2756752252        6.4976000934       21.0499406535
  N         5.0079378524       17.5768369669        8.9179117098
  C         5.2819279927       17.3035834740       10.2322050597
  N        17.3603960726        6.7583288302        3.0461154104
  C        17.0868802524        6.4857662399        1.7304860148
  N        17.3793078201       17.5661010663       13.8582579982
  C        17.1048198386       17.2933126435       12.5438343853
  N         4.9928330007        3.0554360104        6.7685717817
  C         5.2663794664        1.7395981101        6.4948227188
  N         5.0120615820       13.8691403135       17.5769325486
  C         5.2838456340       12.5543428314       17.3036062442
  N        17.3736398301       19.7249991012        6.7572289986
  C        17.0970810765       21.0408655896        6.4842574070
  N        17.3746235987        8.9067132473       17.5664683243
  C        17.1025460919       10.2215368835       17.2934653197
  N         5.0142718407       19.7330574452       16.0165531993
  C         5.2847582121       21.0500457978       16.2888375295
  N         4.9974501670        8.9180324171        5.2102579405
  C         5.2716734067       10.2323438304        5.4829377610
  N        17.3693009470        3.0462648051       16.0063416130
  C        17.0958825571        1.7305473688       16.2793743296
  N        17.3691386064       13.8580645725        5.1992614661
  C        17.0946738461       12.5436530707        5.4722291452
  N         2.8602415174       16.0205022705       17.5794880698
  C         1.5445201551       16.2933723959       17.3057551713
  N        13.6638928053       16.0100975310        6.7614485487
  C        12.3493688683       16.2843822452        6.4894608792
  N        19.5309809688       16.0076099746        5.1996259707
  C        20.8463103227       16.2838288279        5.4761323822
  N         8.7205178431       16.0147766995       16.0147394621
  C        10.0355417832       16.2866855459       16.2866681742
  N        19.5274497129        6.7584541251       17.5672741783
  C        20.8450360257        6.4893337636       17.2973867545
  N         8.7047344560        6.7659214268        6.7658850456
  C        10.0186298954        6.4915859841        6.4915730791
  N         2.8414570350        6.7717061452        5.2123406497
  C         1.5256719092        6.4982080310        5.4855465600
  N        13.6637018770        6.7614231447       16.0101219999
  C        12.3492447440        6.4894517923       16.2843874711
  N        15.8129948283        5.1989841806       19.7232089185
  C        16.0827122825        5.4715844933       21.0403552766
  N        15.8149083574       16.0083791364        8.9083255201
  C        16.0891209126       16.2813190201       10.2225655458
  N        15.8111214357       17.5664718458        3.0458476027
  C        16.0842697907       17.2925915631        1.7299866806
  N        15.8110719540        6.7589612218       13.8592421552
  C        16.0824843715        6.4857148587       12.5446341647
  N         6.5507728457        5.2081429852        3.0557140311
  C         6.2780730550        5.4815041693        1.7400249481
  N         6.5696678642       16.0166951020       13.8675961568
  C         6.2957936229       16.2899603975       12.5533578788
  N         6.5746837072       17.5749123193       19.7342654629
  C         6.2989859762       17.3015887785       21.0503709157
  N         6.5575000972        6.7678941763        8.9168049817
  C         6.2852251574        6.4949322589       10.2314014562
  N        19.5276331672       17.5671675800        6.7585850907
  C        20.8452086146       17.2973230140        6.4894132336
  N         8.7228986593       17.5737593912       17.5737163166
  C        10.0372385627       17.2995256294       17.2995049093
  N         2.8414553109        5.2124571226        6.7715882750
  C         1.5256786487        5.4856488925        6.4981066926
  N        13.6638785096        5.2023879330       17.5689630699
  C        12.3491899709        5.4765863580       17.2971878425
  N         2.8602265655       17.5796092646       16.0203725232
  C         1.5445076470       17.3058681133       16.2932580736
  N        13.6640236929       17.5689370942        5.2024098360
  C        12.3493694987       17.2971712306        5.4766023174
  N        19.5308639627        5.1994993947       16.0077256925
  C        20.8461166107        5.4760515490       16.2838936477
  N         8.7017867217        5.2071240955        5.2070875098
  C        10.0167905267        5.4788214836        5.4788043916
  N         6.5746881416       19.7343614714       17.5748147324
  C         6.2989421777       21.0504603929       17.3014859715
  N         6.5575296484        8.9168804797        6.7678233986
  C         6.2852804482       10.2314719392        6.4948563113
  N         6.5507384888        3.0558009400        5.2080621691
  C         6.2780424094        1.7401114704        5.4814206689
  N         6.5696350483       13.8676698182       16.0166222006
  C         6.2957406702       12.5534305063       16.2898838524
  N        15.8109108233        3.0458005069       17.5665278546
  C        16.0840574378        1.7298936847       17.2926540280
  N        15.8111594233       13.8592260537        6.7590621737
  C        16.0825665656       12.5444926527        6.4858030469
  N        15.8131903369       19.7231258758        5.1990371711
  C        16.0828550981       21.0402619237        5.4716414167
  N        15.8147956864        8.9083172192       16.0084466860
  C        16.0890277434       10.2224435925       16.2813944161
  N        17.3734759766        6.7571589455       19.7250695998
  C        17.0969589712        6.4841972440       21.0409389144
  N        17.3747753234       17.5663928950        8.9068204106
  C        17.1026677838       17.2933903680       10.2216531553
  N         4.9928861422        6.7686739260        3.0553669253
  C         5.2664253328        6.4949253963        1.7395192108
  N         5.0121137330       17.5770244313       13.8690379442
  C         5.2839173274       17.3036961788       12.5542519726
  N        17.3694915896       16.0062640571        3.0463931738
  C        17.0960701596       16.2793076359        1.7306067641
  N        17.3689753710        5.1991918620       13.8581070540
  C        17.0945537230        5.4721416094       12.5438014761
  N         5.0142465158       16.0166717820       19.7329852094
  C         5.2847936226       16.2889558477       21.0499638065
  N         4.9973983221        5.2103492918        8.9179428585
  C         5.2716007201        5.4830229699       10.2322553018
  N        17.3822313070       19.7246758581       16.0077687584
  C        17.1060075994       21.0406963729       16.2811401103
  N        17.3642720935        8.9067802162        5.1991125596
  C        17.0924093585       10.2215570354        5.4722588543
  N         5.0012730794        3.0554311394       16.0185144791
  C         5.2753673428        1.7396250837       16.2916160816
  N         5.0017905582       13.8691221396        5.2101319490
  C         5.2737216969       12.5542969315        5.4828545481
  N        17.3603412299        3.0460187952        6.7584251657
  C        17.0868417905        1.7304102868        6.4858761864
  N        17.3792597716       13.8581992551       17.5661897962
  C        17.1047578312       12.5437227937       17.2934097951
  N         5.0059294567       19.7329836330        6.7704496893
  C         5.2757925081       21.0500212909        6.4975382942
  N         5.0078113882        8.9179970331       17.5767434866
  C         5.2818250594       10.2322950672       17.3034897754
  N        19.5197824774        6.7565338406        5.1973972745
  C        20.8362221148        6.4865450793        5.4731817471
  N         8.7125854805        6.7656746745       16.0145379720
  C        10.0270627459        6.4913892061       16.2864743363
  N         2.8503314500        6.7708269954       17.5787085716
  C         1.5344766197        6.4968563785       17.3044572080
  N        13.6554654107        6.7613213109        6.7613592701
  C        12.3405883441        6.4894492441        6.4894715306
  N         2.8515123532       16.0197508610        5.2114567314
  C         1.5358423602       16.2920741162        5.4841831656
  N        13.6719437912       16.0099990952       16.0100359594
  C        12.3578520788       16.2843354568       16.2843498391
  N        19.5384781121       16.0054935583       17.5649359594
  C        20.8550236085       16.2809245940       17.2943726576
  N         8.7127162493       16.0145835006        6.7656292230
  C        10.0272008056       16.2865006548        6.4913633298
  N         6.5616998211       17.5767925537        3.0559538902
  C         6.2888538101       17.3034816883        1.7401299326
  N         6.5617197506        6.7678883792       13.8674880170
  C         6.2872377183        6.4949138137       12.5533098970
  N         6.5639106692        5.2098940266       19.7344851160
  C         6.2882276127        5.4833230898       21.0504439699
  N         6.5654924350       16.0166043358        8.9167070978
  C         6.2937965686       16.2898993324       10.2313656142
  N        15.8240252916       17.5683831686       19.7231977737
  C        16.0934714006       17.2953324712       21.0403003110
  N        15.8066423435        6.7591579633        8.9084535510
  C        16.0803818622        6.4858510798       10.2226284612
  N        15.7996576913        5.2006419623        3.0457853213
  C        16.0733982585        5.4741722457        1.7299254537
  N        15.8191701459       16.0084327197       13.8593220320
  C        16.0911785470       16.2813553192       12.5446299803
 Zn        14.4913328962       14.6793583973       14.6794260995
 Br        13.1677377020       13.3620536368       13.3620820787
 Zn        14.4715179071        3.8733358103        3.8734149457
 Br        13.1491364237        2.5545014916        2.5545363555
 Zn         3.6736595524       14.6919138859        3.8830789610
 Br         2.3509023402       13.3727302932        2.5641524799
 Zn         3.6735144524        3.8831856527       14.6917726415
 Br         2.3507404532        2.5642858969       13.3725984916
 Zn         7.8932355580        8.0964767196       14.6865880139
 Br         9.2123381279        9.4140442471       13.3654516854
 Zn         7.8922590347       18.9043576730        3.8813664924
 Br         9.2115396103       20.2217933669        2.5582510749
 Zn        18.6921977271        8.0832418800        3.8694667574
 Br        20.0105269030        9.4037375993        2.5484760491
 Zn        18.7113827228       18.8929684413       14.6774575795
 Br        20.0298514029       20.2123755494       13.3564421551
 Zn         7.8933165491       14.6866537762        8.0964180524
 Br         9.2123935066       13.3654878705        9.4140092512
 Zn         7.8920702853        3.8814093452       18.9042866161
 Br         9.2112811027        2.5582759422       20.2217629400
 Zn        18.7113501216       14.6773457234       18.8930408641
 Br        20.0297616823       13.3563095050       20.2125019298
 Zn        18.6921413734        3.8693498518        8.0833761697
 Br        20.0104328045        2.5483467694        9.4038697569
 Zn        14.4797823758        8.0895989281        8.0896799264
 Br        13.1610898127        9.4098601463        9.4098906171
 Zn        14.4977585284       18.8961179167       18.8962000792
 Br        13.1800316136       20.2176709106       20.2177064331
 Zn         3.6786342108        8.0997176269       18.9064903846
 Br         2.3612181424        9.4200160345       20.2276013336
 Zn         3.6787651952       18.9066190556        8.0996038771
 Br         2.3613704630       20.2277390030        9.4198909388
 Zn        14.4860003951       14.6792391385        8.0895039928
 Br        13.1645517001       13.3622698238        9.4099825562
 Zn        14.4863489169        3.8725950088       18.8957168493
 Br        13.1648048590        2.5544772427       20.2171832182
 Zn         3.6838800143       14.6919889073       18.9070325887
 Br         2.3651086340       13.3719800701       20.2275999183
 Zn         3.6678601772        3.8836284068        8.0995816279
 Br         2.3468188026        2.5641673663        9.4191954613
 Zn         7.8880704640        8.0964250591        8.0963704719
 Br         9.2092086285        9.4143537443        9.4143238038
 Zn         7.9024892979       18.9031690571       18.9030781482
 Br         9.2264385123       20.2212975435       20.2212583413
 Zn        18.7048051699        8.0835238502       18.8942668653
 Br        20.0255586570        9.4039689399       20.2127394788
 Zn        18.7049657637       18.8941615472        8.0836727755
 Br        20.0257181759       20.2126073662        9.4040979135
 Zn        14.4858833277        8.0894479677       14.6793041111
 Br        13.1644917914        9.4099510315       13.3622996531
 Zn        14.4865464256       18.8956611562        3.8726380221
 Br        13.1650717319       20.2171477469        2.5545065643
 Zn         3.6679125725        8.0996937696        3.8835304068
 Br         2.3469137646        9.4193300609        2.5640369538
 Zn         3.6839189686       18.9071555415       14.6918437009
 Br         2.3651958462       20.2277374270       13.3718336879
 Zn         7.8980969519       14.6865552973       14.6864933573
 Br         9.2154127092       13.3658284544       13.3657969471
 Zn         7.8799513402        3.8803033964        3.8802417576
 Br         9.1959693828        2.5581784136        2.5581467362
 Zn        18.7007238716       14.6773648498        3.8711690021
 Br        20.0150986487       13.3562206290        2.5484095906
 Zn        18.7005535234        3.8710112103       14.6774983303
 Br        20.0149346000        2.5482739529       13.3563527656
 Zn         5.7845909042        5.9905792489       16.7980518966
 Zn        16.6038135768       16.7862824421       16.7863698461
 Zn        16.5841785235        5.9783704163        5.9784875675
 Zn         5.7847287571       16.7981628721        5.9904956614
 Zn         5.7759503073        5.9903261648        5.9902399480
 Zn        16.5953506987       16.7862170414        5.9786062408
 Zn         5.7924175582       16.7977379259       16.7976210170
 Zn        16.5951914954        5.9785034040       16.7862952443
  N         3.5970520175        5.9911752649       16.7993889973
  N        14.4002773653        5.9811439665        5.9811920964
  N        18.7920590512       16.7840571824       16.7841577099
  N         7.9664759104       16.7949189688        5.9871307242
  N        18.7732664999        5.9755922926        5.9756645674
  N         7.9663108197        5.9871707887       16.7948776097
  N         3.5972159795       16.7995131703        5.9910393010
  N        14.4194986940       16.7888498643       16.7888995824
  N        16.5803105311        3.7920798317        5.9791777373
  N        16.5999416464       14.6048165880       16.7872104820
  N        16.6042574804       18.9774484003       16.7885839253
  N        16.5850083647        8.1613941127        5.9792237854
  N         5.7859726462       18.9873713717        5.9904263605
  N         5.7859782521        8.1712739124       16.7966739290
  N         5.7814020933        3.8019755506       16.7975501369
  N         5.7824638481       14.6144732555        5.9890578896
  N         5.7816073373       16.7976326829        3.8018891330
  N         5.7823369698        5.9891390834       14.6143946115
  N        16.6042408854       16.7884606324       18.9775350747
  N        16.5849802949        5.9791660563        8.1615102246
  N         5.7857779482        5.9904853475       18.9872840285
  N         5.7861064765       16.7967563126        8.1711962872
  N        16.5803607398        5.9790992383        3.7921716314
  N        16.5999579695       16.7871183804       14.6049168833
  N         5.7720059943        3.8018600983        5.9885040615
  N         5.7914624251       14.6145100360       16.7967903102
  N        16.5946580696       18.9775731231        5.9777181991
  N        16.5942813565        8.1613458639       16.7874140080
  N         5.7951507192       18.9872680396       16.7955745318
  N         5.7769002173        8.1713136637        5.9890966819
  N        16.5904432026        3.7922188206       16.7869407063
  N        16.5909608952       14.6047310864        5.9792980158
  N         3.6065117469       16.7998769597       16.7997539856
  N        14.4101025036       16.7889028134        5.9812827390
  N        18.7828313666       16.7867341205        5.9782993201
  N         7.9756122054       16.7948714766       16.7948184110
  N        18.7826585288        5.9781919715       16.7869020504
  N         7.9570826756        5.9871983410        5.9871493202
  N         3.5876272071        5.9916516969        5.9915246077
  N        14.4099422426        5.9811799823       16.7890071808
  N        16.5944481457        5.9776495517       18.9776617816
  N        16.5943630672       16.7872928101        8.1614537541
  N        16.5906985447       16.7868107244        3.7922999271
  N        16.5908561218        5.9792262326       14.6048583783
  N         5.7720466567        5.9885935736        3.8017746312
  N         5.7914928718       16.7968747070       14.6144285529
  N         5.7951186517       16.7956896707       18.9871793069
  N         5.7768696782        5.9891799181        8.1712351830
  C        11.1956276129       15.7402719458       15.7402728122
  H        11.1942194910       14.9675357817       14.9675356494
  C        11.1767501026        4.9323991628        4.9324032164
  H        11.1752987709        4.1596536079        4.1596555838
  C         0.3748383764       15.7454579236        4.9377125576
  H         0.3795051580       14.9732882335        4.1654328479
  C         0.3746928693        4.9378049871       15.7453550693
  H         0.3793444513        4.1655905002       14.9731338362
  C        11.1881006247        7.0356599496       15.7401656806
  H        11.1880550469        7.8083974369       14.9674611222
  C        11.1883028394       17.8435416413        4.9323818626
  H        11.1883018042       18.6162746472        4.1596396734
  C         0.3622457727        7.0403116172        4.9396002663
  H         0.3670700425        7.8164731821        4.1699088152
  C         0.3810894067       17.8479638049       15.7472330778
  H         0.3860549120       18.6241931228       14.9775994083
  C        11.1882331255       15.7401697836        7.0356541159
  H        11.1881641055       14.9674598371        7.8083986272
  C        11.1881231360        4.9323845858       17.8435404439
  H        11.1880813433        4.1596343258       18.6162806868
  C         0.3811355025       15.7473052670       17.8478933795
  H         0.3861010914       14.9776788874       18.6241157039
  C         0.3623022145        4.9396618448        7.0402504312
  H         0.3671176243        4.1699908383        7.8163927082
  C        11.1805639448        7.0358048822        7.0358067346
  H        11.1819044891        7.8085129133        7.8085139638
  C        11.1994767674       17.8435474276       17.8435472526
  H        11.2009854128       18.6162856343       18.6162845154
  C         0.3687448102        7.0384148590       17.8460840399
  H         0.3738225121        7.8120855737       18.6197009336
  C         0.3689045955       17.8461837752        7.0383215846
  H         0.3739856632       18.6198509083        7.8119253935
  C        15.5442848411       11.3840732254       15.7365303263
  H        14.7708935540       11.3847431297       14.9644190008
  C        15.5309995819        0.5652132171        4.9309624225
  H        14.7554454523        0.5702291042        4.1599250337
  C         4.7268975690       11.3937937212        4.9380547482
  H         3.9534956504       11.3944230204        4.1659870975
  C         4.7330701299        0.5750186774       15.7481314055
  H         3.9574065483        0.5800352897       14.9772141422
  C        15.5366043312       11.3841230191        7.0316534908
  H        14.7645542058       11.3847891756        7.8051128828
  C        15.5425301495        0.5652789746       17.8369796847
  H        14.7682832403        0.5703268881       18.6094055031
  C         4.7380741914       11.3937770859       17.8492790711
  H         3.9660275976       11.3944020460       18.6226659151
  C         4.7250509392        0.5749817934        7.0391517006
  H         3.9508338294        0.5800085924        7.8114645274
  C         6.8395706995       11.3919761042       15.7440577019
  H         7.6116536423       11.3912431930       14.9706595849
  C         6.8238400292        0.5778376546        4.9367078594
  H         7.5941072938        0.5826114903        4.1618210581
  C        17.6382453844       11.3821693555        4.9265262940
  H        18.4102792075       11.3814060702        4.1531452102
  C        17.6413475673        0.5681138064       15.7346649077
  H        18.4115739798        0.5728948937       14.9598386726
  C         6.8320687718       11.3919605528        7.0396596986
  H         7.6054788914       11.3912257392        7.8116824377
  C         6.8353384967        0.5778363750       17.8470512339
  H         7.6069209529        0.5825859413       18.6206002606
  C        17.6493513295       11.3822011551       17.8381552664
  H        18.4228122946       11.3814593018       18.6101335766
  C        17.6334530401        0.5681892646        7.0298095626
  H        18.4050846191        0.5729908240        7.8032858529
  C        15.5443583114       15.7364651210       11.3840930323
  H        14.7709472265       14.9643635489       11.3847945258
  C        15.5309832915        4.9308761599        0.5652981435
  H        14.7554501037        4.1598282423        0.5703353458
  C         4.7332247963       15.7482142493        0.5749675572
  H         3.9575800005       14.9772845602        0.5799743903
  C         4.7267993217        4.9381512567       11.3936915041
  H         3.9533879421        4.1660976115       11.3943148600
  C         6.8396363537       15.7441263602       11.3918997349
  H         7.6117086437       14.9707145645       11.3911878399
  C         6.8238268880        4.9367894727        0.5777377471
  H         7.5941163720        4.1619125075        0.5825076110
  C        17.6414959734       15.7345863926        0.5681716838
  H        18.4117537375       14.9597630013        0.5729560636
  C        17.6381468731        4.9264219705       11.3822002837
  H        18.4101694698        4.1530354912       11.3815168350
  C        15.5365337715        7.0315803258       11.3841131749
  H        14.7644971613        7.8050595026       11.3848417097
  C        15.5427089924       17.8369274683        0.5653702691
  H        14.7685166527       18.6093818137        0.5704323119
  C         4.7250660164        7.0392628340        0.5749322817
  H         3.9508928051        7.8116135112        0.5799497554
  C         4.7381702093       17.8493773072       11.3936731199
  H         3.9661387979       18.6227727541       11.3942922187
  C         6.8320033537        7.0397259071       11.3918858722
  H         7.6054249445        7.8117367088       11.3911712204
  C         6.8355240452       17.8471010931        0.5777350792
  H         7.6071500864       18.6206156003        0.5824815306
  C        17.6334691222        7.0296921860        0.5682374750
  H        18.4051512357        7.8031405833        0.5730536918
  C        17.6494543576       17.8380576856       11.3822656913
  H        18.4229154913       18.6100181789       11.3815686912
 Kr        21.4133150686       10.7976366815       10.7977915154
