     409
 i =     176, E =    -5136.7135008299
  N         3.0074086008        5.2054193185       16.0305577567
  C         1.6890457695        5.4748279073       16.2980109205
  N        13.8132845148        5.2031018410        5.2030989946
  C        12.4962173504        5.4752003801        5.4751971283
  N        19.6964227852       17.5771096794       16.0205949670
  C        21.0144674938       17.3095021084       16.2937035336
  N         8.8689102079       17.5825568472        5.2099434563
  C        10.1866834260       17.3092829353        5.4767188401
  N        19.6784010569        5.2003138530        6.7563147259
  C        20.9959435070        5.4731508415        6.4888487391
  N         8.8689274052        5.2099317573       17.5825615250
  C        10.1866524080        5.4767061480       17.3092860213
  N         3.0036072377       17.5841453016        6.7635440188
  C         1.6864540493       17.3126282420        6.4915600111
  N        13.8367789341       17.5770593081       17.5770633153
  C        12.5183442843       17.3079214036       17.3079208684
  N        15.9667041157        3.0465513541        5.2004274567
  C        16.2387246199        1.7289590993        5.4698828974
  N        15.9876022848       13.8661648608       16.0193408032
  C        16.2559112823       12.5482052775       16.2898527240
  N        15.9892548829       19.7294342301       17.5753498278
  C        16.2562687530       21.0474369734       17.3041068719
  N        15.9722072321        8.9104421131        6.7566501671
  C        16.2436526796       10.2277710403        6.4862560729
  N         6.7136549628       19.7411672500        5.2117770552
  C         6.4404208381       21.0585489070        5.4807229122
  N         6.7159105403        8.9176205848       16.0286831156
  C         6.4461861241       10.2353530147       16.2977886835
  N         6.7167315779        3.0568270554       17.5876149972
  C         6.4492977932        1.7387251261       17.3169470073
  N         6.7061027620       13.8747361578        6.7699418858
  C         6.4312912832       12.5574964352        6.5029891823
  N         5.1630659735       16.0303208046        3.0548947740
  C         5.4346528700       16.3003286983        1.7375076609
  N         5.1538324657        5.2111697353       13.8769715813
  C         5.4177107471        5.4853245786       12.5589368599
  N        17.5420689326       16.0173394179       19.7310233300
  C        17.2704770297       16.2871262358       21.0485593636
  N        17.5265755985        5.1992412038        8.9087903465
  C        17.2584345189        5.4697012887       10.2266473423
  N         5.1569704582        6.7670063506       19.7390082038
  C         5.4245055905        6.4962347969       21.0570322997
  N         5.1592300987       17.5841999681        8.9191036244
  C         5.4304363418       17.3135175625       10.2364916784
  N        17.5240848968        6.7551226690        3.0476515814
  C        17.2551244361        6.4848928910        1.7299403326
  N        17.5420471282       17.5760614331       13.8649901763
  C        17.2707868700       17.3062273066       12.5474504859
  N         5.1492539101        3.0562136478        6.7671814102
  C         5.4204857124        1.7386766709        6.4965214643
  N         5.1668258134       13.8756145090       17.5839816253
  C         5.4340107343       12.5576007162       17.3132008053
  N        17.5320644621       19.7317263089        6.7543421962
  C        17.2593247475       21.0489003410        6.4846783198
  N        17.5351064449        8.9088022083       17.5784471975
  C        17.2672620512       10.2264524733       17.3072857598
  N         5.1699929796       19.7386332922       16.0287554388
  C         5.4381838921       21.0564368939       16.2995496568
  N         5.1441868955        8.9201303052        5.2138638052
  C         5.4132261900       10.2376053549        5.4864337800
  N        17.5351547108        3.0474628733       16.0174593249
  C        17.2666525852        1.7296479996       16.2872887311
  N        17.5347844945       13.8651209866        5.2007985285
  C        17.2625677378       12.5477434381        5.4702424590
  N         3.0145128433       16.0302349145       17.5863459468
  C         1.6966929307       16.2983360087       17.3140656034
  N        13.8268406600       16.0193185646        6.7566613147
  C        12.5088161135       16.2901020218        6.4878228630
  N        19.6900056928       16.0211094104        5.2007029311
  C        21.0072604910       16.2932995405        5.4721901700
  N         8.8759585413       16.0256061712       16.0256050419
  C        10.1942469096       16.2947129906       16.2947107241
  N        19.6867426184        6.7563068071       17.5781985937
  C        21.0049312323        6.4878452879       17.3091894799
  N         8.8600760393        6.7666226968        6.7666159261
  C        10.1773170263        6.4949477302        6.4949410473
  N         2.9945985949        6.7649766564        5.2092490094
  C         1.6770014361        6.4930665089        5.4774139034
  N        13.8268430998        6.7566674046       16.0193242285
  C        12.5088098045        6.4878267876       16.2900966608
  N        15.9766695231        5.1981484105       19.7293129540
  C        16.2436531264        5.4690316527       21.0474338477
  N        15.9813021075       16.0208759514        8.9098262836
  C        16.2526640785       16.2906262013       10.2272164429
  N        15.9800198651       17.5740414306        3.0456553876
  C        16.2516559041       17.3036111455        1.7284084961
  N        15.9799091335        6.7573519960       13.8668314967
  C        16.2475379374        6.4865177587       12.5489439320
  N         6.7045514816        5.2109293887        3.0580910315
  C         6.4358915709        5.4805980032        1.7399959937
  N         6.7205169795       16.0269325127       13.8738322187
  C         6.4487523032       16.2967353768       12.5564735354
  N         6.7246164904       17.5855531317       19.7398712050
  C         6.4531619277       17.3159272462       21.0573618467
  N         6.6994446688        6.7707766932        8.9191545715
  C         6.4279563756        6.5031021795       10.2367320695
  N        19.6867567949       17.5781968968        6.7563120772
  C        21.0049329621       17.3091761326        6.4878388340
  N         8.8787693003       17.5820497026       17.5820493212
  C        10.1961366853       17.3104921776       17.3104900118
  N         2.9945897839        5.2092359294        6.7649846423
  C         1.6770013612        5.4774107477        6.4930665612
  N        13.8260239619        5.2003788605       17.5751906179
  C        12.5083487647        5.4723747376       17.3060937382
  N         3.0145036329       17.5863542697       16.0302279729
  C         1.6966922912       17.3140644749       16.2983382484
  N        13.8260239039       17.5751794807        5.2003802200
  C        12.5083561456       17.3060863830        5.4723848602
  N        19.6900081069        5.2006898688       16.0211004634
  C        21.0072593041        5.4721836903       16.2932979062
  N         8.8566251046        5.2108212015        5.2108203828
  C        10.1748210830        5.4792938037        5.4792906730
  N         6.7246115649       19.7398353102       17.5855544650
  C         6.4531631443       21.0573856164       17.3159347366
  N         6.6994484491        8.9191915590        6.7707771065
  C         6.4279542343       10.2367100125        6.5030948433
  N         6.7045463495        3.0580642717        5.2109313536
  C         6.4358877565        1.7400183373        5.4806000842
  N         6.7205195613       13.8738577800       16.0269291212
  C         6.4487545391       12.5564494925       16.2967315047
  N        15.9800359847        3.0456344294       17.5740668733
  C        16.2516492952        1.7284296614       17.3036215201
  N        15.9798929127       13.8668467785        6.7573308992
  C        16.2475382511       12.5489176433        6.4865057212
  N        15.9766708864       19.7292775247        5.1981722601
  C        16.2436559197       21.0474514112        5.4690420013
  N        15.9813139503        8.9098529532       16.0208479310
  C        16.2526713649       10.2271924440       16.2906121430
  N        17.5320700824        6.7543270642       19.7317508808
  C        17.2593283976        6.4846749375       21.0488820732
  N        17.5350893620       17.5784660955        8.9087835605
  C        17.2672493639       17.3072920244       10.2264771144
  N         5.1492549014        6.7671726341        3.0562502561
  C         5.4204787493        6.4965222289        1.7386545764
  N         5.1668213142       17.5839869919       13.8755806751
  C         5.4340153408       17.3131982961       12.5576245619
  N        17.5351274004       16.0174432773        3.0474920737
  C        17.2666519344       16.2872845172        1.7296261885
  N        17.5348161456        5.2008139416       13.8650973797
  C        17.2625775416        5.4702506305       12.5477700892
  N         5.1699939556       16.0287582574       19.7386636453
  C         5.4381866844       16.2995516766       21.0564133940
  N         5.1441835862        5.2138625530        8.9201002447
  C         5.4132218757        5.4864338352       10.2376276102
  N        17.5420842478       19.7310110964       16.0173469109
  C        17.2704790668       21.0485704474       16.2871314034
  N        17.5265601576        8.9087972376        5.1992378799
  C        17.2584275284       10.2266318421        5.4696952173
  N         5.1630542318        3.0548472233       16.0303083943
  C         5.4346463588        1.7375480137       16.3003243061
  N         5.1538451295       13.8770191954        5.2111782612
  C         5.4177175357       12.5588978850        5.4853266743
  N        17.5240908231        3.0476246003        6.7551339868
  C        17.2551221310        1.7299517399        6.4848973809
  N        17.5420455886       13.8650086876       17.5760537279
  C        17.2707973329       12.5474323622       17.3062204316
  N         5.1569760761       19.7389688017        6.7670031836
  C         5.4245138268       21.0570677015        6.4962301621
  N         5.1592270258        8.9191399580       17.5842024933
  C         5.4304300927       10.2364549764       17.3135222138
  N        19.6783921824        6.7563063261        5.2003272201
  C        20.9959428643        6.4888494525        5.4731534018
  N         8.8691583696        6.7628581527       16.0231434864
  C        10.1868854577        6.4908416700       16.2919260838
  N         3.0035930718        6.7635428590       17.5841449437
  C         1.6864772973        6.4915664978       17.3126390892
  N        13.8173269416        6.7591204977        6.7591129839
  C        12.4988893693        6.4909103087        6.4909038338
  N         3.0074431409       16.0305749087        5.2054350874
  C         1.6890232778       16.2980154362        5.4748350610
  N        13.8342699170       16.0207442112       16.0207489422
  C        12.5165885400       16.2921686627       16.2921684077
  N        19.6964141914       16.0206004034       17.5771039602
  C        21.0144676089       16.2937000674       17.3095051495
  N         8.8691395849       16.0231537433        6.7628526460
  C        10.1869156613       16.2919367195        6.4908393621
  N         6.7167319484       17.5876038312        3.0568673065
  C         6.4492966711       17.3169365074        1.7386845358
  N         6.7061055364        6.7699522252       13.8746951379
  C         6.4312949177        6.5029992797       12.5575353923
  N         6.7136687475        5.2117705528       19.7412140867
  C         6.4404268546        5.4807206368       21.0585138225
  N         6.7158989745       16.0286942087        8.9175755457
  C         6.4461817364       16.2977939091       10.2353891582
  N        15.9892431944       17.5753395630       19.7294578978
  C        16.2562712442       17.3040975810       21.0474276395
  N        15.9722170431        6.7566515274        8.9104225402
  C        16.2436530768        6.4862634854       10.2277850119
  N        15.9667009824        5.2004176875        3.0465708730
  C        16.2387241199        5.4698751258        1.7289475589
  N        15.9876005066       16.0193503914       13.8661528099
  C        16.2559029488       16.2898648311       12.5482231191
 Zn        14.6967972882       14.7257246145       14.7257176363
 Br        13.3777070572       13.4135864774       13.4135865878
 Zn        14.6708993545        3.9074835635        3.9074955338
 Br        13.3551949151        2.5941013742        2.5941069820
 Zn         3.8694158380       14.7378921242        3.9108422912
 Br         2.5528299236       13.4244281169        2.5974023147
 Zn         3.8694462763        3.9108633847       14.7379105027
 Br         2.5528334772        2.5974057592       13.4244280197
 Zn         8.0055381074        8.0572312529       14.7307700256
 Br         9.3174880941        9.3722308118       13.4146503552
 Zn         8.0074892330       18.8796889232        3.9203313887
 Br         9.3225277408       20.1940175298        2.6058320616
 Zn        18.8193588411        8.0493537591        3.9047274630
 Br        20.1342704391        9.3622089534        2.5898960820
 Zn        18.8331571188       18.8705725958       14.7242102027
 Br        20.1499678432       20.1830083980       13.4101334231
 Zn         8.0055599209       14.7307561888        8.0572486741
 Br         9.3174909506       13.4146444042        9.3722332437
 Zn         8.0074657609        3.9203455230       18.8796718847
 Br         9.3225223171        2.6058383640       20.1940163719
 Zn        18.8331608045       14.7242090018       18.8705802387
 Br        20.1499629470       13.4101320018       20.1830059721
 Zn        18.8193550673        3.9047250153        8.0493518108
 Br        20.1342779676        2.5898951189        9.3622165650
 Zn        14.6787382094        8.0524677869        8.0524657829
 Br        13.3663481745        9.3676983278        9.3677003165
 Zn        14.7012165691       18.8711301599       18.8711377351
 Br        13.3853456418       20.1849770942       20.1849790184
 Zn         3.8630030746        8.0584449537       18.8761599204
 Br         2.5502188056        9.3748853065       20.1901515924
 Zn         3.8629837950       18.8761745471        8.0584595805
 Br         2.5502137930       20.1901629983        9.3748938885
 Zn        14.6887056634       14.7261677711        8.0519093702
 Br        13.3724539018       13.4139953372        9.3666845853
 Zn        14.6855916006        3.9037907953       18.8682496636
 Br        13.3703930519        2.5891639658       20.1813235077
 Zn         3.8789692495       14.7356383871       18.8781053622
 Br         2.5621426989       13.4232701613       20.1929652624
 Zn         3.8533875349        3.9161363187        8.0587366958
 Br         2.5407807785        2.6019316636        9.3749500630
 Zn         7.9981386452        8.0592252575        8.0592180536
 Br         9.3069262674        9.3763009407        9.3762962904
 Zn         8.0163554530       18.8767618510       18.8767687010
 Br         9.3345286441       20.1896003085       20.1896026412
 Zn        18.8252838101        8.0490319975       18.8738643479
 Br        20.1410981889        9.3618930000       20.1882001232
 Zn        18.8252960979       18.8738658533        8.0490394236
 Br        20.1411114550       20.1882018542        9.3618996493
 Zn        14.6887155952        8.0518998611       14.7261760553
 Br        13.3724501480        9.3666777662       13.4140017711
 Zn        14.6855834052       18.8682543124        3.9037868670
 Br        13.3703950322       20.1813255087        2.5891657380
 Zn         3.8533821191        8.0587448110        3.9161470531
 Br         2.5407802537        9.3749393886        2.6019353660
 Zn         3.8789735558       18.8780962783       14.7356316115
 Br         2.5621413031       20.1929736720       13.4232702398
 Zn         8.0110071731       14.7315461340       14.7315353398
 Br         9.3241960607       13.4164604999       13.4164599635
 Zn         7.9979944466        3.9174478588        3.9174625137
 Br         9.3110929403        2.6023888209        2.6023892816
 Zn        18.8281246284       14.7243879019        3.9075102520
 Br        20.1441238250       13.4103952531        2.5944775069
 Zn        18.8281058837        3.9075199432       14.7244016990
 Br        20.1441241009        2.5944805048       13.4103997767
 Zn         5.9410411866        5.9923245223       16.8120012498
 Zn        16.7681383415       16.7967259652       16.7967280071
 Zn        16.7486872595        5.9776710292        5.9776816261
 Zn         5.9410432426       16.8120015905        5.9923246894
 Zn         5.9266523974        5.9937186951        5.9937194801
 Zn        16.7615540292       16.7981835996        5.9768863328
 Zn         5.9482404983       16.8110664892       16.8110661453
 Zn        16.7615379206        5.9768761580       16.7981883145
  N         3.7523858612        5.9851665183       16.8083669788
  N        14.5620514661        5.9801802825        5.9801921802
  N        18.9501766024       16.7973451894       16.7973670413
  N         8.1225049650       16.8043137872        5.9878914266
  N        18.9316991788        5.9768724154        5.9768557866
  N         8.1224840597        5.9878848420       16.8043069225
  N         3.7523729939       16.8083451972        5.9851474994
  N        14.5819884103       16.7983539700       16.7983454744
  N        16.7447561571        3.7937783552        5.9779591650
  N        16.7660108018       14.6122600804       16.7970131609
  N        16.7672184507       18.9833980939       16.7972505433
  N        16.7486578816        8.1628105221        5.9779684977
  N         5.9369749282       18.9935026729        5.9900110698
  N         5.9373674077        8.1718798945       16.8068609586
  N         5.9388432046        3.8028674121       16.8092093881
  N         5.9331583516       14.6228871948        5.9884871466
  N         5.9388386979       16.8091988830        3.8028445403
  N         5.9331651530        5.9884962690       14.6229086520
  N        16.7672456309       16.7972555279       18.9833993165
  N        16.7486356348        5.9779682816        8.1628176110
  N         5.9369641853        5.9900184938       18.9934852691
  N         5.9373772484       16.8068531006        8.1718983418
  N        16.7447713102        5.9779579828        3.7937747106
  N        16.7660041597       16.7970026732       14.6122685339
  N         5.9263905974        3.8040896443        5.9892705554
  N         5.9449131696       14.6217850668       16.8058771296
  N        16.7560913428       18.9836878624        5.9756227937
  N        16.7576231819        8.1623869625       16.7997600418
  N         5.9481248743       18.9925912839       16.8069158084
  N         5.9227502891        8.1731637791        5.9910438524
  N        16.7571111466        3.7933402322       16.7961351223
  N        16.7587264050       14.6127993709        5.9796951395
  N         3.7612617317       16.8093394550       16.8093579002
  N        14.5731987341       16.7968553546        5.9777374999
  N        18.9419502515       16.7989188094        5.9777820782
  N         8.1308625321       16.8044850140       16.8044826357
  N        18.9419446109        5.9777948264       16.7989478962
  N         8.1115373373        5.9894396219        5.9894419866
  N         3.7413802958        5.9881729779        5.9881569678
  N        14.5731931685        5.9777258517       16.7968487564
  N        16.7560657054        5.9756579399       18.9836811344
  N        16.7576611350       16.7997094055        8.1624008343
  N        16.7571873111       16.7961757111        3.7933281078
  N        16.7586567414        5.9796547420       14.6128175182
  N         5.9263790156        5.9892770237        3.8040799371
  N         5.9449228957       16.8058690064       14.6217966481
  N         5.9481172465       16.8069086375       18.9925820054
  N         5.9227590920        5.9910504862        8.1731719175
  C        11.3543154719       15.7439947764       15.7439924775
  H        11.3525554986       14.9685058173       14.9685027217
  C        11.3336653662        4.9275957142        4.9275939308
  H        11.3306240865        4.1520779960        4.1520787573
  C         0.5298489868       15.7462292659        4.9237585509
  H         0.5326951326       14.9709861548        4.1480173723
  C         0.5298482625        4.9237697597       15.7462434808
  H         0.5326927044        4.1480093881       14.9709796381
  C        11.3481353847        7.0382874299       15.7408790721
  H        11.3485519370        7.8133750065       14.9649625416
  C        11.3472831595       17.8576333304        4.9253266407
  H        11.3467892099       18.6339155688        4.1505784677
  C         0.5165087806        7.0409625749        4.9257707215
  H         0.5166066042        7.8167330442        4.1505290117
  C         0.5355534495       17.8613858545       15.7466989568
  H         0.5356537404       18.6370336068       14.9713357132
  C        11.3481396622       15.7408755689        7.0382968684
  H        11.3485577349       14.9649658152        7.8133778965
  C        11.3472766279        4.9253263031       17.8576251476
  H        11.3467790512        4.1505703753       18.6339137968
  C         0.5355546128       15.7466909307       17.8613927052
  H         0.5356566234       14.9713402225       18.6370271881
  C         0.5165092897        4.9257708709        7.0409553211
  H         0.5166058169        4.1505130396        7.8167371210
  C        11.3399198630        7.0425841208        7.0425743858
  H        11.3428705522        7.8180865529        7.8180735859
  C        11.3584753676       17.8586491247       17.8586475702
  H        11.3602576172       18.6341443386       18.6341430998
  C         0.5240950961        7.0396254250       17.8602264232
  H         0.5213642412        7.8154818624       18.6353964585
  C         0.5240954004       17.8602207501        7.0396275045
  H         0.5213626834       18.6353966527        7.8154922759
  C        15.7049815722       11.3883326134       15.7399336932
  H        14.9299910029       11.3892449052       14.9639061787
  C        15.6911787588        0.5672642419        4.9200634393
  H        14.9154154809        0.5656608741        4.1448308844
  C         4.8657436009       11.3990697887        4.9361220212
  H         4.0916818939       11.4002846645        4.1591667473
  C         4.8870112532        0.5763576907       15.7498336865
  H         4.1117589608        0.5751724311       14.9739829446
  C        15.6961806728       11.3891855995        7.0364491846
  H        14.9212681070       11.3905000797        7.8125512627
  C        15.7045436927        0.5669252827       17.8540295087
  H        14.9296787839        0.5652970302       18.6301716225
  C         4.8825763852       11.3979645829       17.8632163838
  H         4.1075590365       11.3993921079       18.6392515328
  C         4.8728105116        0.5769010837        7.0459489600
  H         4.0976578148        0.5751577158        7.8218280660
  C         6.9968233695       11.3951256120       15.7470962580
  H         7.7721385593       11.3938323671       14.9713698837
  C         6.9875498456        0.5802958408        4.9307199457
  H         7.7629977628        0.5818940199        4.1551550312
  C        17.8097938273       11.3863855555        4.9197789167
  H        18.5848950252       11.3851432424        4.1438510313
  C        17.8177711288        0.5699390887       15.7368427015
  H        18.5928062820        0.5714291914       14.9608368288
  C         6.9772621113       11.3963532252        7.0549197402
  H         7.7512282251       11.3949996041        7.8319266843
  C         7.0005789033        0.5787205287       17.8665508199
  H         7.7756384238        0.5797794171       18.6424890007
  C        17.8185578863       11.3864453313       17.8568015424
  H        18.5938178454       11.3855700619       18.6325677598
  C        17.8070751738        0.5703140395        7.0343284726
  H        18.5830578849        0.5717818145        7.8093999396
  C        15.7049668719       15.7399402373       11.3883338082
  H        14.9299826222       14.9639210909       11.3892478670
  C        15.6911838678        4.9200623855        0.5672710344
  H        14.9154120190        4.1448214408        0.5656651165
  C         4.8870047571       15.7498295525        0.5763605207
  H         4.1117606830       14.9739920664        0.5751712440
  C         4.8657473526        4.9361298868       11.3990664406
  H         4.0916754362        4.1591634044       11.4002858322
  C         6.9968312872       15.7470900879       11.3951243893
  H         7.7721365744       14.9713739027       11.3938357790
  C         6.9875454907        4.9307307656        0.5802986582
  H         7.7630061674        4.1551588634        0.5818916934
  C        17.8177791621       15.7368350078        0.5699397146
  H        18.5928056023       14.9608409079        0.5714267313
  C        17.8097961275        4.9197935546       11.3863883208
  H        18.5849098811        4.1438556933       11.3851508894
  C        15.6961786813        7.0364559663       11.3891867455
  H        14.9212686092        7.8125501672       11.3905032003
  C        15.7045516604       17.8540232389        0.5669279518
  H        14.9296824085       18.6301729064        0.5652997244
  C         4.8728066134        7.0459424923        0.5769042009
  H         4.0976532831        7.8218153380        0.5751570308
  C         4.8825758029       17.8632196301       11.3979636295
  H         4.1075559677       18.6392577763       11.3993953181
  C         6.9772581497        7.0549230962       11.3963501619
  H         7.7512241864        7.8319304609       11.3950018255
  C         7.0005859419       17.8665458623        0.5787226175
  H         7.7756476241       18.6424816401        0.5797755538
  C        17.8070750253        7.0343239411        0.5703203212
  H        18.5830507518        7.8093894319        0.5717836084
  C        17.8185504056       17.8568081613       11.3864472318
  H        18.5938184866       18.6325792272       11.3855748871
 Kr         4.5708114974       10.2295082532       10.2295085875
