     409
 i =     176, E =    -5136.7010911454
  N         2.9679465164        5.2419816855       15.9667198387
  C         1.6468075869        5.4954588070       16.2382549619
  N        13.8144799737        5.0910990619        5.0912325234
  C        12.4916175541        5.3502820752        5.3507711789
  N        19.6009662113       17.5408183136       15.9858656646
  C        20.9182224737       17.2853408509       16.2698500108
  N         8.8242875322       17.5897160923        5.2093393990
  C        10.1418118281       17.2871894788        5.4449448196
  N        19.6605359047        5.1798876254        6.7359223686
  C        20.9780832698        5.4624914153        6.4783702295
  N         8.8244550981        5.2088900775       17.5901293181
  C        10.1419844810        5.4443870512       17.2874749837
  N         2.9520292061       17.5383131910        6.7807472327
  C         1.6374100463       17.2624741362        6.5023221936
  N        13.7527322068       17.6079562476       17.6080152588
  C        12.4276040190       17.3544775274       17.3545687725
  N        15.9985018808        2.9820653759        5.1299461573
  C        16.2584729949        1.6676108332        5.4178066997
  N        15.8465907724       13.8565961132       16.0208681353
  C        16.1235094524       12.5360305799       16.2778531227
  N        15.9379965632       19.7255271117       17.5704796400
  C        16.2115288095       21.0397889845       17.2892546350
  N        15.9169772341        8.8437500342        6.6862342194
  C        16.1926746691       10.1648281333        6.4336442722
  N         6.6292386424       19.6994050993        5.2000513688
  C         6.3532018356       21.0163004829        5.4575575753
  N         6.6405696980        8.9538569492       16.0286748292
  C         6.3584503965       10.2710987140       16.2988388973
  N         6.6621864698        3.0924589385       17.5386698632
  C         6.3782595785        1.7765858084       17.2821776286
  N         6.7213975002       13.8183596377        6.8541289420
  C         6.4582646806       12.5026461086        6.5581495624
  N         5.1266977387       15.9628298922        3.0929122505
  C         5.3751273363       16.2542330105        1.7746307540
  N         5.1614800650        5.3000756261       13.8378182055
  C         5.4381214998        5.5477651194       12.5176971530
  N        17.4729806831       15.9952995710       19.7091493393
  C        17.2151308155       16.2617823413       21.0299538562
  N        17.4837356002        5.1419298914        8.8570922655
  C        17.2141403085        5.4233917589       10.1721582995
  N         5.0847996391        6.7657501124       19.7072323369
  C         5.3471086170        6.4819200264       21.0232314307
  N         5.0833500568       17.5834242537        8.9419040700
  C         5.3423853759       17.3142660499       10.2621906973
  N        17.5318090661        6.7072130091        2.9917824410
  C        17.2593832946        6.4477878752        1.6723334235
  N        17.4312033593       17.5476799385       13.8495629552
  C        17.1579937420       17.2744299353       12.5337556527
  N         5.0911791976        3.0242145947        6.7297747887
  C         5.3490608153        1.7031917174        6.4643568591
  N         5.0645656223       13.9017455318       17.6161486153
  C         5.3313866308       12.5857507408       17.3315488715
  N        17.4938835067       19.6730769530        6.7563069441
  C        17.2402554965       20.9911247073        6.4721182998
  N        17.4627922474        8.8971840139       17.5141721678
  C        17.1728166425       10.2131485789       17.2587009680
  N         5.0632683328       19.7739581807       16.0512906003
  C         5.3457067387       21.0931997078       16.2998896122
  N         5.1682307657        8.8856470568        5.1867665998
  C         5.4393765142       10.1971401115        5.4869108049
  N        17.4974286285        3.0281421393       15.9698693137
  C        17.2267732652        1.7116118949       16.2481680739
  N        17.4965748350       13.8114225856        5.1834517783
  C        17.2227333679       12.4929742097        5.4446294806
  N         2.9156308583       16.0497504669       17.6057484093
  C         1.5983623587       16.3012436968       17.3169694556
  N        13.7753381930       15.9321707742        6.6734620027
  C        12.4602593023       16.2130589051        6.4023887460
  N        19.6476694189       15.9646843957        5.1986905777
  C        20.9641022406       16.2373107044        5.4757256446
  N         8.7651854864       16.1023625008       16.1025286877
  C        10.0863454333       16.3632213953       16.3633909549
  N        19.6373871833        6.7547709908       17.5212964047
  C        20.9565415304        6.4892234521       17.2554587327
  N         8.8513763679        6.6312742547        6.6320517443
  C        10.1662683339        6.3573975137        6.3583770941
  N         2.9772504643        6.7652925308        5.2092123861
  C         1.6594560868        6.4923756106        5.4767408867
  N        13.7754364356        6.6730112769       15.9322538470
  C        12.4603873465        6.4017722653       16.2131253122
  N        15.9589537520        5.1817007580       19.6743635365
  C        16.2385904121        5.4429398431       20.9903661571
  N        15.8790006552       15.9857542263        8.8906994704
  C        16.1387636999       16.2614197788       10.2111741237
  N        15.9516541557       17.5352900517        3.0377249826
  C        16.2190272138       17.2715438996        1.7193559200
  N        15.9414339638        6.7396548568       13.8055026246
  C        16.2061806254        6.4591105143       12.4881236055
  N         6.6206027155        5.1477533839        3.0048845876
  C         6.3491957579        5.4332958772        1.6924571046
  N         6.6192610315       16.0606989712       13.9153935980
  C         6.3461909128       16.3155681128       12.5950410610
  N         6.6036198187       17.6232463445       19.7827247277
  C         6.3506948399       17.3263446460       21.0979620490
  N         6.7470553435        6.7204472950        8.8539261910
  C         6.4683839117        6.4904554331       10.1770264819
  N        19.6372593225       17.5211269215        6.7548096035
  C        20.9564347150       17.2553525363        6.4892412848
  N         8.7855381604       17.6571892458       17.6571858759
  C        10.1018346119       17.3788776742       17.3789490299
  N         2.9773500349        5.2092729343        6.7656061562
  C         1.6594940527        5.4766213658        6.4926873081
  N        13.7853664258        5.1702249542       17.5389745959
  C        12.4651113863        5.4238830072       17.2638607666
  N         2.9156085936       17.6057638615       16.0497202460
  C         1.5983528012       17.3169674667       16.3012418942
  N        13.7851822586       17.5386466099        5.1704130456
  C        12.4649267348       17.2636249491        5.4242943198
  N        19.6477610720        5.1986794726       15.9648171187
  C        20.9642135441        5.4757396124       16.2373850914
  N         8.8426696088        5.0775341033        5.0775700443
  C        10.1648183122        5.3421977496        5.3426707371
  N         6.6035697384       19.7827360157       17.6232238039
  C         6.3506370372       21.0979587938       17.3263170904
  N         6.7459581661        8.8538194156        6.7192458719
  C         6.4673533971       10.1769652819        6.4894071009
  N         6.6206754666        3.0049476707        5.1479629519
  C         6.3492296411        1.6925151082        5.4335146990
  N         6.6192176226       13.9153719520       16.0605771829
  C         6.3460477293       12.5950467971       16.3155033757
  N        15.9517474433        3.0376399860       17.5354717240
  C        16.2190733635        1.7192748503       17.2716752445
  N        15.9413015327       13.8053484560        6.7397099454
  C        16.2060210444       12.4879564671        6.4591725863
  N        15.9587973656       19.6741531510        5.1818085705
  C        16.2384568688       20.9901542847        5.4430252583
  N        15.8789547454        8.8905765173       15.9859648264
  C        16.1387470473       10.2110554536       16.2615764526
  N        17.4939783869        6.7562598700       19.6733063221
  C        17.2403511226        6.4720683825       20.9913462409
  N        17.4627702964       17.5140225045        8.8972737507
  C        17.1727987306       17.2585785717       10.2132466314
  N         5.0909154672        6.7293905560        3.0240695811
  C         5.3489344373        6.4640436025        1.7031113260
  N         5.0645405917       17.6161938493       13.9016315935
  C         5.3314722615       17.3315660563       12.5856526645
  N        17.4973366160       15.9696822780        3.0282112027
  C        17.2267265344       16.2480369368        1.7116834742
  N        17.4966310943        5.1833314522       13.8116253818
  C        17.2228340881        5.4445107788       12.4931615749
  N         5.0632808630       16.0513632314       19.7739440674
  C         5.3457255256       16.2999552003       21.0931762057
  N         5.1693720395        5.1878178938        8.8855238051
  C         5.4404728778        5.4878789782       10.1970910439
  N        17.4729638620       19.7090906153       15.9953681367
  C        17.2151265656       21.0298868350       16.2618597875
  N        17.4836673377        8.8569164757        5.1422010599
  C        17.2140123284       10.1719788362        5.4235751347
  N         5.1268542355        3.0929996786       15.9627147893
  C         5.3751602762        1.7746728329       16.2541258548
  N         5.1606340406       13.8378674755        5.2994741371
  C         5.4371752315       12.5177143987        5.5470348148
  N        17.5317472677        2.9915390561        6.7072901737
  C        17.2593026373        1.6720985938        6.4478488914
  N        17.4312479251       13.8494727521       17.5477438613
  C        17.1580311535       12.5336593808       17.2745117724
  N         5.0847833829       19.7072607711        6.7659118872
  C         5.3471261412       21.0232546275        6.4821025575
  N         5.0832307027        8.9420059958       17.5837230281
  C         5.3422189450       10.2622774807       17.3144222379
  N        19.6605024881        6.7356127478        5.1801671043
  C        20.9780682586        6.4780723780        5.4627308583
  N         8.8215359781        6.7157915106       15.9885623149
  C        10.1396873401        6.4252631779       16.2384411313
  N         2.9521318530        6.7807848921       17.5383580199
  C         1.6375278459        6.5023257619       17.2624935552
  N        13.7951133061        6.6467845793        6.6475316865
  C        12.4834049821        6.3649999566        6.3659634591
  N         2.9677764716       15.9668550066        5.2417678795
  C         1.6466715307       16.2383282336        5.4953707640
  N        13.7174997648       16.0519069377       16.0520589989
  C        12.4067425839       16.3391909016       16.3393524688
  N        19.6009794563       15.9858083892       17.5408660972
  C        20.9182339360       16.2698144779       17.2853713951
  N         8.8214083267       15.9883524637        6.7164779654
  C        10.1395510988       16.2383169283        6.4259977066
  N         6.6621993064       17.5386250313        3.0925046462
  C         6.3783111940       17.2821994353        1.7766037991
  N         6.7221807985        6.8548326834       13.8185161507
  C         6.4591540544        6.5589415568       12.5027817121
  N         6.6292587480        5.1998845756       19.6993976108
  C         6.3532096159        5.4573924927       21.0162800279
  N         6.6407198026       16.0283871105        8.9538754776
  C         6.3586419073       16.2987079440       10.2710891612
  N        15.9380073979       17.5704106393       19.7255929879
  C        16.2115308151       17.2891760517       21.0398620877
  N        15.9172358969        6.6861781202        8.8439205820
  C        16.1929096486        6.4335722308       10.1649859129
  N        15.9985942611        5.1298242227        2.9822608928
  C        16.2585775691        5.4177154123        1.6678153672
  N        15.8465623568       16.0207773735       13.8567089355
  C        16.1234896005       16.2777537006       12.5361425585
 Zn        14.5505981668       14.7473327972       14.7474920310
 Br        13.2719319444       13.4151572674       13.4153403335
 Zn        14.7130937923        3.8146471478        3.8147627830
 Br        13.4125307895        2.4933186630        2.4933967679
 Zn         3.8568821194       14.6670412448        3.9837809733
 Br         2.5628541767       13.3283060617        2.6728107226
 Zn         3.8574477281        3.9843684803       14.6668611958
 Br         2.5634974514        2.6734839546       13.3279387964
 Zn         7.9947236891        8.1107710723       14.7783464633
 Br         9.5470831130        9.5647284727       13.9590624146
 Zn         7.9470011283       18.8624755039        3.9213873380
 Br         9.2499289984       20.1703274365        2.5919507475
 Zn        18.8015498462        8.0099825849        3.8681470589
 Br        20.1175455522        9.3350576300        2.5650574555
 Zn        18.7406829368       18.8308925259       14.6951049787
 Br        20.0601146881       20.1373249264       13.3760416126
 Zn         7.9941000029       14.7773552598        8.1105460913
 Br         9.5446397944       13.9526973324        9.5632848479
 Zn         7.9469705820        3.9208964682       18.8627733356
 Br         9.2498117307        2.5914970392       20.1706788383
 Zn        18.7407200645       14.6950352285       18.8309334276
 Br        20.0601698517       13.3759979227       20.1373753891
 Zn        18.8015063039        3.8676471557        8.0100977550
 Br        20.1176667972        2.5647140149        9.3351492073
 Zn        14.6200779779        7.9541197630        7.9543276250
 Br        13.3575621371        9.2928524821        9.2936105122
 Zn        14.6555993049       18.8840489803       18.8841054458
 Br        13.3684302316       20.2126906552       20.2127539914
 Zn         3.7891919740        8.0616553433       18.8598150966
 Br         2.4623254484        9.3491988167       20.1880468772
 Zn         3.7892252958       18.8595554051        8.0616859662
 Br         2.4624833010       20.1879001179        9.3492892174
 Zn        14.6216770118       14.6675556234        8.0065224184
 Br        13.3431743347       13.3214594531        9.3229279283
 Zn        14.6586738212        3.8924396723       18.8295396897
 Br        13.3451712861        2.5816482703       20.1492520563
 Zn         3.7738938529       14.7632568002       18.9079870748
 Br         2.4607718829       13.4443858773       20.2216645382
 Zn         3.8411785733        3.9059091256        8.0493197082
 Br         2.5250383284        2.6086625973        9.3763047579
 Zn         8.0599155479        7.9412973741        7.9398904575
 Br         9.5957802817        9.1343353248        9.1213085679
 Zn         7.8936969677       18.9363936126       18.9363703563
 Br         9.1915223104       20.2582600150       20.2582671744
 Zn        18.7708861108        8.0555566196       18.8038001232
 Br        20.0807050010        9.3728086975       20.1201048369
 Zn        18.7708368594       18.8035844501        8.0556001774
 Br        20.0806531097       20.1199685809        9.3727921111
 Zn        14.6216998802        8.0063511511       14.6677265258
 Br        13.3432178518        9.3226459234       13.3215243473
 Zn        14.6585386333       18.8293078406        3.8925599145
 Br        13.3450154149       20.1490223268        2.5818016180
 Zn         3.8405768613        8.0489174994        3.9052872288
 Br         2.5240450687        9.3753449760        2.6078740715
 Zn         3.7738394811       18.9079850360       14.7632012752
 Br         2.4607079873       20.2217760812       13.4444470075
 Zn         7.9215630787       14.8090721622       14.8090202461
 Br         9.4021979888       13.5879113764       13.5863152110
 Zn         7.9074186422        3.8160493279        3.8161273183
 Br         9.1621361831        2.4735453629        2.4736751714
 Zn        18.7869133075       14.6760952698        3.8946674468
 Br        20.1182257576       13.3814487512        2.5763640857
 Zn        18.7869932901        3.8946159291       14.6762970189
 Br        20.1183279644        2.5763186891       13.3816448009
 Zn         5.8973577144        6.0207722225       16.7786901668
 Zn        16.6652874948       16.7812866879       16.7813536822
 Zn        16.7293604789        5.9103877863        5.9106030990
 Zn         5.8972334286       16.7784572421        6.0207364413
 Zn         5.9053264736        5.9271681561        5.9267275114
 Zn        16.7130086974       16.7373349504        5.9606238505
 Zn         5.8410230377       16.8576016553       16.8575267786
 Zn        16.7130762040        5.9605551216       16.7376656800
  N         3.7072336152        6.0181287037       16.7534954855
  N        14.5513356804        5.8741810690        5.8744595267
  N        18.8538946317       16.7562857559       16.7563360408
  N         8.0768968702       16.8041614439        5.9794953222
  N        18.9139765294        5.9507612001        5.9510343620
  N         8.0770593021        5.9789859728       16.8045540498
  N         3.7071076929       16.7535619350        6.0179807558
  N        14.4817138079       16.8212027661       16.8212963758
  N        16.7675130320        3.7334651317        5.9112606209
  N        16.6385129719       14.5993940400       16.7884431665
  N        16.7010262990       18.9702584892       16.7863521198
  N        16.6993890523        8.1034244104        5.9071193810
  N         5.8615088366       18.9563418078        5.9903364176
  N         5.8686334616        8.2020192623       16.8071652929
  N         5.9036913184        3.8393656466       16.7429074458
  N         5.9362968499       14.5753469684        6.0864551432
  N         5.9035764203       16.7429215800        3.8393564455
  N         5.9370170111        6.0870282691       14.5754090761
  N        16.7010357487       16.7862954524       18.9703294516
  N        16.6995570847        5.9069041668        8.1035997965
  N         5.8615236062        5.9901875077       18.9563465976
  N         5.8687172503       16.8068026776        8.2019670658
  N        16.7675627022        5.9111265229        3.7336802744
  N        16.6384843399       16.7883798948       14.5994937909
  N         5.8602596614        3.7605595772        5.9333443410
  N         5.8440802291       14.6560980763       16.8469161152
  N        16.7193966438       18.9264826022        5.9747137217
  N        16.6799891787        8.1474051141       16.7443155105
  N         5.8256302034       19.0324279365       16.8493043638
  N         5.9585529087        8.1226743385        5.9350544671
  N        16.7250445750        3.7794847411       16.7492887542
  N        16.7202167983       14.5549019587        5.9661249989
  N         3.6619434618       16.8374857222       16.8374827469
  N        14.5271887186       16.7354967119        5.9277381313
  N        18.8961829504       16.7408853096        5.9740520147
  N         8.0287965919       16.8833276821       16.8833793600
  N        18.8962853515        5.9739880554       16.7410413294
  N         8.0999965685        5.8581322987        5.8583072628
  N         3.7238781731        5.9877035130        5.9877911270
  N        14.5273399296        5.9275461886       16.7357210394
  N        16.7195186588        5.9746231082       18.9267002258
  N        16.6799928437       16.7441059352        8.1475169113
  N        16.7249335533       16.7490678783        3.7795590668
  N        16.7203032198        5.9660247416       14.5550923232
  N         5.8600648163        5.9330262156        3.7604606408
  N         5.8440230548       16.8470286049       14.6560445926
  N         5.8256754928       16.8493740218       19.0324113071
  N         5.9596121058        5.9362126626        8.1226712260
  C        11.2362992756       15.8027283653       15.8029467984
  H        11.2154123455       15.0275045739       15.0277419375
  C        11.3317749966        4.7964236287        4.7966955027
  H        11.3400722472        4.0211692773        4.0210337115
  C         0.4902162395       15.6860706542        4.9381901199
  H         0.4964232003       14.9070517326        4.1663588005
  C         0.4903256582        4.9382654963       15.6860509477
  H         0.4964899435        4.1664592714       14.9070058198
  C        11.3001097837        6.9346063360       15.6514366314
  H        11.2980685338        7.6874873766       14.8551573753
  C        11.3045323303       17.8411031685        4.9012146037
  H        11.3062183912       18.6436136280        4.1537833219
  C         0.4985349886        7.0359858379        4.9211764002
  H         0.4976022584        7.8107357868        4.1448901733
  C         0.4382876424       17.8504142980       15.7350119263
  H         0.4377523068       18.6259006695       14.9594577238
  C        11.3000184710       15.6514841031        6.9354704029
  H        11.2979978029       14.8552619241        7.6884338898
  C        11.3047450205        4.9008001175       17.8414304843
  H        11.3065134773        4.1535078154       18.6440676098
  C         0.4383102577       15.7349910913       17.8504308613
  H         0.4377978753       14.9594309398       18.6259146779
  C         0.4985948597        4.9210614604        7.0363510823
  H         0.4976649225        4.1448620436        7.8111830013
  C        11.3225110243        6.9091479831        6.9105153138
  H        11.3128757257        7.6841684255        7.6855886939
  C        11.2759950674       17.9160715078       17.9161153893
  H        11.2937954966       18.6914470438       18.6914319100
  C         0.4722814141        7.0415561161       17.8123384080
  H         0.4654784810        7.8123551353       18.5926052815
  C         0.4721475810       17.8122519694        7.0416007417
  H         0.4653238215       18.5924825651        7.8124376853
  C        15.5709465179       11.3735555060       15.7316651908
  H        14.7836029029       11.3744981920       14.9683076241
  C        15.7065439476        0.5074851064        4.8721110935
  H        14.9416252136        0.5056205655        4.0860968403
  C         4.8843507610       11.3703598555        4.9731699344
  H         4.1030548392       11.3924713256        4.2032506588
  C         4.8168449278        0.6101117737       15.7209670496
  H         4.0493202478        0.6031427175       14.9377196887
  C        15.6485967160       11.3235783226        6.9945726322
  H        14.8721397040       11.3204070857        7.7691301308
  C        15.6713485060        0.5653331620       17.8362354141
  H        14.9033166380        0.5740502665       18.6192060480
  C         4.7866342094       11.4176670206       17.8715284892
  H         4.0137537738       11.4081369152       18.6497322200
  C         4.8032140004        0.5480042315        7.0290937954
  H         4.0366806340        0.5542213603        7.8133928842
  C         6.8988503038       11.4403873455       15.7567690868
  H         7.6843194281       11.4487374827       14.9922686833
  C         6.8935126993        0.5295355408        4.8869611582
  H         7.6593585504        0.5227048976        4.1016651751
  C        17.7699711408       11.3355033794        4.8867113932
  H        18.5482890544       11.3393861879        4.1141033628
  C        17.7658009524        0.5449878715       15.7002505273
  H        18.5342543252        0.5362479494       14.9178907083
  C         7.0164985163       11.3261050940        7.0669175162
  H         7.8027152563       11.2954316574        7.8292594316
  C         6.9082354588        0.6209246380       17.8600743123
  H         7.6752253409        0.6274281851       18.6441861496
  C        17.7242805065       11.3732384384       17.8064434737
  H        18.5141180999       11.3732295706       18.5674766105
  C        17.7920142259        0.5130398686        7.0179731372
  H        18.5559496979        0.5152435029        7.8048257649
  C        15.5709547320       15.7315272406       11.3736708899
  H        14.7836262656       14.9681527600       11.3746115831
  C        15.7066754205        4.8720087898        0.5076831712
  H        14.9417739942        4.0859770199        0.5057996672
  C         4.8168143944       15.7210729976        0.6100714215
  H         4.0492606353       14.9378539152        0.6031150823
  C         4.8854117790        4.9739981152       11.3702084887
  H         4.1040984414        4.2040676446       11.3922041747
  C         6.8990791688       15.7567820802       11.4404309731
  H         7.6845341167       14.9922559096       11.4488815080
  C         6.8935463573        4.8867971016        0.5294783391
  H         7.6594325151        4.1015438855        0.5226513530
  C        17.7657858724       15.7001548556        0.5450503481
  H        18.5342432036       14.9177961662        0.5363103965
  C        17.7700483509        4.8865259638       11.3357090225
  H        18.5483149209        4.1138678395       11.3396273835
  C        15.6488441794        6.9945474290       11.3237213345
  H        14.8724356688        7.7691514814       11.3205070941
  C        15.6713350610       17.8361341289        0.5654090762
  H        14.9033036050       18.6191043457        0.5741303724
  C         4.8031083501        7.0288383151        0.5479297346
  H         4.0365346288        7.8131033350        0.5541889555
  C         4.7867538071       17.8714537507       11.4175212203
  H         4.0138414253       18.6496245249       11.4078859768
  C         7.0173798837        7.0678697179       11.3262563698
  H         7.8032922144        7.8305106957       11.2958911485
  C         6.9083258545       17.8600647732        0.6209346294
  H         7.6753546158       18.6441348381        0.6274444405
  C        17.7920800938        7.0179358732        0.5132768876
  H        18.5559871144        7.8048131687        0.5154807332
  C        17.7242389952       17.8063575608       11.3733227362
  H        18.5140617489       18.5674061821       11.3733100599
 Kr         7.7924054446       11.2895170849       11.2955247915
