     409
 i =     176, E =    -5136.7099883178
  N         3.0312567416        5.2027435304       16.0232718309
  C         1.7132320220        5.4728205271       16.2925283630
  N        13.8467948118        5.2002233237        5.2002257709
  C        12.5291041305        5.4711160005        5.4711166508
  N        19.7165324700       17.5760235160       16.0199769143
  C        21.0343681667       17.3066898548       16.2909812304
  N         8.8927781291       17.5791438887        5.2033487634
  C        10.2106861386       17.3076896840        5.4722967870
  N        19.7093342656        5.2006806898        6.7569746397
  C        21.0272362274        5.4723952447        6.4881663601
  N         8.8927784016        5.2033456584       17.5791446802
  C        10.2106856344        5.4722953250       17.3076915168
  N         3.0297444809       17.5789774572        6.7597837000
  C         1.7121796555       17.3079966364        6.4888810549
  N        13.8544142064       17.5762011551       17.5762020501
  C        12.5365614498       17.3063922822       17.3063923513
  N        16.0015055088        3.0456129461        5.1990255964
  C        16.2722183623        1.7280782790        5.4687707345
  N        16.0081970446       13.8663752849       16.0191472133
  C        16.2780998584       12.5487419376       16.2889054273
  N        16.0085971667       19.7292413236       17.5759044366
  C        16.2782218687       21.0468660397       17.3057320415
  N        16.0027588489        8.9103779548        6.7570710518
  C        16.2736511469       10.2278326455        6.4872737712
  N         6.7389475273       19.7338222090        5.2040261330
  C         6.4684099967       21.0513566007        5.4742495570
  N         6.7402876492        8.9133728961       16.0230863363
  C         6.4711021088       10.2311284069       16.2933081073
  N         6.7398870620        3.0501956474       17.5801245376
  C         6.4719658174        1.7323184359       17.3091289190
  N         6.7375067202       13.8699260644        6.7605617198
  C         6.4672244425       12.5523551874        6.4906001153
  N         5.1857750859       16.0231536349        3.0492164801
  C         5.4571228721       16.2927286017        1.7317168052
  N         5.1835104073        5.2034775141       13.8703487387
  C         5.4524904189        5.4740868613       12.5526431391
  N        17.5632608120       16.0190178236       19.7295121200
  C        17.2932184383       16.2894029538       21.0471544211
  N        17.5563339892        5.1995405089        8.9096274996
  C        17.2881681478        5.4705141938       10.2273742080
  N         5.1844104638        6.7610591948       19.7332590500
  C         5.4535855084        6.4907628081       21.0509192382
  N         5.1853091410       17.5796780759        8.9141747255
  C         5.4559659004       17.3095105279       10.2315906182
  N        17.5559759040        6.7557517736        3.0461258716
  C        17.2871784698        6.4851039366        1.7284211286
  N        17.5634259637       17.5755345473       13.8659829697
  C        17.2933439621       17.3050017140       12.5483925989
  N         5.1814133558        3.0494660946        6.7609678826
  C         5.4518871993        1.7319109359        6.4908303424
  N         5.1875231538       13.8701688156       17.5796548744
  C         5.4570180850       12.5525255348       17.3094670192
  N        17.5583695232       19.7298142152        6.7553898526
  C        17.2884140294       21.0473755834        6.4849325126
  N        17.5596312860        8.9094551904       17.5762783112
  C        17.2914926833       10.2272467090       17.3052796188
  N         5.1890065680       19.7329739450       16.0230078392
  C         5.4589233318       21.0506193789       16.2927726242
  N         5.1813272015        8.9141415105        5.2038786728
  C         5.4514326140       10.2316546175        5.4742949238
  N        17.5605980939        3.0462406903       16.0187807983
  C        17.2918602863        1.7284082447       16.2893127176
  N        17.5599662991       13.8659982300        5.2002704649
  C        17.2899575154       12.5484314483        5.4707936736
  N         3.0338282872       16.0235159682       17.5797999122
  C         1.7161197914       16.2926826910       17.3084262233
  N        13.8505783599       16.0195636717        6.7561774510
  C        12.5327696934       16.2903836663        6.4864088112
  N        19.7136099773       16.0200465665        5.2006480288
  C        21.0312370001       16.2908839560        5.4716301976
  N         8.8957364245       16.0222419484       16.0222410003
  C        10.2138699229       16.2917702343       16.2917698222
  N        19.7120539757        6.7565294262       17.5765286667
  C        21.0301882177        6.4872875048       17.3067016016
  N         8.8900728829        6.7590347515        6.7590326555
  C        10.2077567012        6.4881292269        6.4881268330
  N         3.0272716106        6.7606462228        5.2042289550
  C         1.7094118776        6.4898979538        5.4741225713
  N        13.8505763061        6.7561798806       16.0195627314
  C        12.5327688477        6.4864108212       16.2903841300
  N        16.0042589290        5.1982642386       19.7293295058
  C        16.2736007873        5.4684487142       21.0470346050
  N        16.0053702939       16.0193309464        8.9102911165
  C        16.2765749070       16.2889298460       10.2277470830
  N        16.0057215047       17.5753862572        3.0453480058
  C        16.2767667991       17.3055369597        1.7279013005
  N        16.0054255294        6.7571969095       13.8664289427
  C        16.2751120884        6.4872874299       12.5487918961
  N         6.7349183204        5.2036400834        3.0502648989
  C         6.4663925304        5.4741313811        1.7324452097
  N         6.7420094327       16.0229485297       13.8699287238
  C         6.4719838909       16.2931800153       12.5522870776
  N         6.7443977923       17.5795734339       19.7335093932
  C         6.4741742212       17.3089238218       21.0510749908
  N         6.7358346370        6.7608360848        8.9137338729
  C         6.4663362616        6.4907158668       10.2313845078
  N        19.7120538833       17.5765340459        6.7565332917
  C        21.0301940960       17.3067057491        6.4872905806
  N         8.8973393363       17.5782973872       17.5782958717
  C        10.2148779474       17.3074813273       17.3074803299
  N         3.0272754438        5.2042255622        6.7606441942
  C         1.7094090961        5.4741183789        6.4898982519
  N        13.8505227554        5.1994581554       17.5756676726
  C        12.5327326850        5.4705748729       17.3060884332
  N         3.0338309569       17.5797999110       16.0235174094
  C         1.7161157559       17.3084270126       16.2926827015
  N        13.8505217874       17.5756689512        5.1994559832
  C        12.5327326587       17.3060874508        5.4705737613
  N        19.7136064241        5.2006454019       16.0200403857
  C        21.0312384626        5.4716272065       16.2908784926
  N         8.8885248355        5.2027334528        5.2027361677
  C        10.2067533746        5.4723570400        5.4723575847
  N         6.7443957934       19.7335079541       17.5795715033
  C         6.4741735436       21.0510725972       17.3089219807
  N         6.7358341864        8.9137342952        6.7608388435
  C         6.4663345749       10.2313864070        6.4907195325
  N         6.7349151131        3.0502576803        5.2036340674
  C         6.4663843649        1.7324431592        5.4741251129
  N         6.7420114824       13.8699308993       16.0229476049
  C         6.4719886368       12.5522856371       16.2931808077
  N        16.0057198376        3.0453427730       17.5753869012
  C        16.2767684729        1.7279006452       17.3055386461
  N        16.0054278244       13.8664347105        6.7571958694
  C        16.2751091502       12.5487929086        6.4872837745
  N        16.0042585481       19.7293302158        5.1982639744
  C        16.2736017553       21.0470332851        5.4684496067
  N        16.0053748049        8.9102878249       16.0193270392
  C        16.2765793650       10.2277459443       16.2889231852
  N        17.5583706439        6.7553881517       19.7298178697
  C        17.2884143532        6.4849307283       21.0473734105
  N        17.5596286116       17.5762821785        8.9094556694
  C        17.2914884567       17.3052854424       10.2272527190
  N         5.1814131978        6.7609702031        3.0494677216
  C         5.4518921028        6.4908349132        1.7319159460
  N         5.1875187066       17.5796534537       13.8701686540
  C         5.4570124934       17.3094639289       12.5525229772
  N        17.5606002536       16.0187811705        3.0462426567
  C        17.2918590868       16.2893113130        1.7284130667
  N        17.5599646408        5.2002723505       13.8659978039
  C        17.2899611510        5.4707980250       12.5484275665
  N         5.1890058719       16.0230131448       19.7329760731
  C         5.4589222681       16.2927770057       21.0506178201
  N         5.1813259862        5.2038763434        8.9141390415
  C         5.4514332563        5.4742916563       10.2316554854
  N        17.5632628918       19.7295071096       16.0190231131
  C        17.2932214144       21.0471542824       16.2894075993
  N        17.5563310397        8.9096306416        5.1995390734
  C        17.2881623222       10.2273727766        5.4705099869
  N         5.1857757962        3.0492155578       16.0231536589
  C         5.4571239198        1.7317142872       16.2927269988
  N         5.1835091173       13.8703501290        5.2034814036
  C         5.4524889017       12.5526465381        5.4740915956
  N        17.5559730390        3.0461252739        6.7557552186
  C        17.2871772430        1.7284172113        6.4851066135
  N        17.5634275496       13.8659794105       17.5755365137
  C        17.2933481830       12.5483923290       17.3049995542
  N         5.1844076122       19.7332550098        6.7610613251
  C         5.4535796295       21.0509200899        6.4907599705
  N         5.1853120632        8.9141765329       17.5796808764
  C         5.4559708387       10.2315870641       17.3095142735
  N        19.7093363064        6.7569740267        5.2006874004
  C        21.0272323406        6.4881648271        5.4724008741
  N         8.8928077521        6.7588183882       16.0222475215
  C        10.2107043747        6.4877091565       16.2916151684
  N         3.0297392985        6.7597816061       17.5789792420
  C         1.7121818806        6.4888781179       17.3079955600
  N        13.8479961703        6.7567039064        6.7567032688
  C        12.5299728591        6.4869044892        6.4869028313
  N         3.0312540880       16.0232707561        5.2027447439
  C         1.7132358151       16.2925308056        5.4728235897
  N        13.8533323625       16.0198784975       16.0198809058
  C        12.5357567054       16.2906396571       16.2906406637
  N        19.7165374809       16.0199730762       17.5760273272
  C        21.0343656224       16.2909796615       17.3066911396
  N         8.8928089494       16.0222456552        6.7588206647
  C        10.2107065067       16.2916135340        6.4877095267
  N         6.7398895968       17.5801214107        3.0501994772
  C         6.4719669035       17.3091282356        1.7323187805
  N         6.7375087314        6.7605569234       13.8699224429
  C         6.4672266997        6.4905948151       12.5523554251
  N         6.7389532704        5.2040279505       19.7338245244
  C         6.4684186862        5.4742544419       21.0513597051
  N         6.7402873416       16.0230849869        8.9133750943
  C         6.4710982630       16.2933061109       10.2311292020
  N        16.0085949758       17.5758980172       19.7292418452
  C        16.2782188868       17.3057267676       21.0468686646
  N        16.0027596745        6.7570715086        8.9103773369
  C        16.2736555982        6.4872772759       10.2278298953
  N        16.0015064086        5.1990242745        3.0456171772
  C        16.2722176010        5.4687687476        1.7280783086
  N        16.0081951496       16.0191453818       13.8663737582
  C        16.2780960754       16.2889085542       12.5487443354
 Zn        14.7152216112       14.7253886436       14.7253907694
 Br        13.3988455049       13.4120760304       13.4120796941
 Zn        14.7099550134        3.9053971026        3.9053986225
 Br        13.3928484465        2.5922940606        2.5922951591
 Zn         3.8935840875       14.7291596523        3.9075683116
 Br         2.5772454815       13.4157081937        2.5942542845
 Zn         3.8935845282        3.9075662484       14.7291592382
 Br         2.5772452001        2.5942517903       13.4157089191
 Zn         8.0306344179        8.0532136523       14.7277894648
 Br         9.3467325734        9.3665030486       13.4138739439
 Zn         8.0306333037       18.8740547748        3.9094524087
 Br         9.3468236953       20.1881846703        2.5964005922
 Zn        18.8462334702        8.0504056638        3.9050369428
 Br        20.1635039601        9.3631395752        2.5915531135
 Zn        18.8563458602       18.8702148013       14.7249847152
 Br        20.1713455886       20.1838430562       13.4106706199
 Zn         8.0306362412       14.7277892006        8.0532161367
 Br         9.3467312409       13.4138739884        9.3665082488
 Zn         8.0306348615        3.9094493311       18.8740572576
 Br         9.3468231641        2.5963959229       20.1881884275
 Zn        18.8563483400       14.7249819257       18.8702181775
 Br        20.1713475748       13.4106675751       20.1838468502
 Zn        18.8462351146        3.9050333274        8.0504077959
 Br        20.1634987658        2.5915477935        9.3631462351
 Zn        14.7113679538        8.0511530734        8.0511523584
 Br        13.3958991845        9.3650510807        9.3650514863
 Zn        14.7163177865       18.8705235553       18.8705263396
 Br        13.4014810238       20.1845903238       20.1845945846
 Zn         3.8924225280        8.0543603823       18.8728530480
 Br         2.5769290576        9.3686406629       20.1863232195
 Zn         3.8924220810       18.8728530027        8.0543627290
 Br         2.5769280999       20.1863233261        9.3686412026
 Zn        14.7132194512       14.7255298525        8.0511411263
 Br        13.3972982360       13.4121952288        9.3650225564
 Zn        14.7131216306        3.9041301183       18.8694389331
 Br        13.3971038475        2.5904258026       20.1828725016
 Zn         3.8956887625       14.7289206041       18.8737237522
 Br         2.5801976854       13.4157631501       20.1881164819
 Zn         3.8904022911        3.9089490364        8.0542902367
 Br         2.5742604685        2.5962413206        9.3687741532
 Zn         8.0278184548        8.0535176455        8.0535166132
 Br         9.3449089172        9.3666850181        9.3666854163
 Zn         8.0385554307       18.8729676559       18.8729676750
 Br         9.3533655360       20.1869873476       20.1869817318
 Zn        18.8493358996        8.0502718610       18.8714584118
 Br        20.1661378787        9.3631397078       20.1851982638
 Zn        18.8493375283       18.8714604107        8.0502742653
 Br        20.1661353157       20.1852033893        9.3631420800
 Zn        14.7132179406        8.0511413092       14.7255276351
 Br        13.3972977660        9.3650253031       13.4121942479
 Zn        14.7131211538       18.8694398315        3.9041298668
 Br        13.3971040879       20.1828733268        2.5904253126
 Zn         3.8904022086        8.0542903455        3.9089513941
 Br         2.5742584689        9.3687752888        2.5962461490
 Zn         3.8956869497       18.8737247638       14.7289186475
 Br         2.5801922757       20.1881168291       13.4157647137
 Zn         8.0338203006       14.7278632709       14.7278618322
 Br         9.3488500008       13.4138137543       13.4138074261
 Zn         8.0240412697        3.9083971001        3.9083989232
 Br         9.3410046141        2.5950722669        2.5950708927
 Zn        18.8525859888       14.7249649285        3.9061520910
 Br        20.1682748050       13.4107452886        2.5929438055
 Zn        18.8525828055        3.9061501191       14.7249619609
 Br        20.1682695089        2.5929422577       13.4107396931
 Zn         5.9583641034        5.9850432969       16.8048316940
 Zn        16.7813650940       16.7971800786       16.7971903654
 Zn        16.7758746901        5.9776112673        5.9776172772
 Zn         5.9583644066       16.8048270883        5.9850477272
 Zn         5.9557736046        5.9854639605        5.9854649742
 Zn        16.7784166737       16.7971107284        5.9771048023
 Zn         5.9614212449       16.8049626907       16.8049601268
 Zn        16.7784153981        5.9771033287       16.7971052606
  N         3.7769552138        5.9814894140       16.8015903266
  N        14.5938268757        5.9781873847        5.9781890743
  N        18.9697576327       16.7975601287       16.7975602978
  N         8.1461116971       16.8012960258        5.9816846532
  N        18.9627325596        5.9780277939        5.9780340888
  N         8.1461111776        5.9816806073       16.8012976717
  N         3.7769566894       16.8015929542        5.9814962399
  N        14.6003599639       16.7977990118       16.7978014370
  N        16.7782094250        3.7926928931        5.9777029623
  N        16.7857304063       14.6129274227       16.7975851654
  N        16.7859357562       18.9825617136       16.7973847567
  N        16.7788041144        8.1631376072        5.9779043686
  N         5.9619564680       18.9868714380        5.9825821411
  N         5.9623635779        8.1671004723       16.8013395283
  N         5.9618730022        3.7966873808       16.8021366929
  N         5.9608239731       14.6170947560        5.9818881466
  N         5.9618745616       16.8021340757        3.7966893196
  N         5.9608235401        5.9818824289       14.6170942752
  N        16.7859327982       16.7973798404       18.9825661251
  N        16.7788065352        5.9779008701        8.1631363012
  N         5.9619589698        5.9825795392       18.9868755887
  N         5.9623615375       16.8013398836        8.1671009125
  N        16.7782085689        5.9776969472        3.7926947994
  N        16.7857312354       16.7975816783       14.6129310780
  N         5.9576879519        3.7968827607        5.9821794140
  N         5.9648547086       14.6170050293       16.8013211780
  N        16.7814200456       18.9827252653        5.9769507570
  N        16.7816609667        8.1629916431       16.7982544951
  N         5.9666062624       18.9866317177       16.8015952710
  N         5.9583885873        8.1672637544        5.9823647654
  N        16.7824834694        3.7925757129       16.7968428639
  N        16.7826581457       14.6129683787        5.9785111632
  N         3.7803313301       16.8023140763       16.8023086343
  N        14.5970032019       16.7972969494        5.9774657334
  N        18.9661474654       16.7980539513        5.9781379175
  N         8.1497586546       16.8006319260       16.8006304545
  N        18.9661460826        5.9781352794       16.7980483325
  N         8.1427013299        5.9812227505        5.9812236815
  N         3.7737090604        5.9827052116        5.9827093522
  N        14.5970022747        5.9774661624       16.7972970885
  N        16.7814184175        5.9769473312       18.9827260009
  N        16.7816632170       16.7982622027        8.1629922184
  N        16.7824823567       16.7968483784        3.7925770266
  N        16.7826570005        5.9785073282       14.6129656897
  N         5.9576921678        5.9821770327        3.7968847169
  N         5.9648512499       16.8013233751       14.6170049788
  N         5.9666067519       16.8015983534       18.9866328278
  N         5.9583886098        5.9823640901        8.1672614854
  C        11.3742612143       15.7416459153       15.7416466672
  H        11.3735463683       14.9661411610       14.9661426907
  C        11.3673235913        4.9223001731        4.9223018444
  H        11.3665179401        4.1467982866        4.1468019174
  C         0.5528624907       15.7421734131        4.9227335919
  H         0.5540133916       14.9667049265        4.1471903628
  C         0.5528616739        4.9227339580       15.7421719598
  H         0.5540134357        4.1471891699       14.9667009500
  C        11.3717222427        7.0364381675       15.7413845737
  H        11.3718180957        7.8118883520       14.9658277410
  C        11.3716526765       17.8564119534        4.9219656355
  H        11.3716825489       18.6320626801        4.1466053944
  C         0.5483200339        7.0386866564        4.9239871879
  H         0.5483789954        7.8142819986        4.1485812035
  C         0.5552015713       17.8571281372       15.7422586216
  H         0.5552733403       18.6327321268       14.9668449929
  C        11.3717241911       15.7413827083        7.0364372973
  H        11.3718218581       14.9658255622        7.8118872798
  C        11.3716534978        4.9219662908       17.8564131654
  H        11.3716846389        4.1466060317       18.6320645932
  C         0.5552033109       15.7422551865       17.8571303893
  H         0.5552761942       14.9668432236       18.6327318878
  C         0.5483210876        4.9239822478        7.0386830844
  H         0.5483813739        4.1485712045        7.8142774473
  C        11.3693874322        7.0369632463        7.0369594326
  H        11.3702967956        7.8124657099        7.8124602217
  C        11.3761909587       17.8565082234       17.8565073404
  H        11.3770134064       18.6320183121       18.6320170914
  C         0.5505079282        7.0377102547       17.8567366091
  H         0.5495037548        7.8132879197       18.6321619027
  C         0.5505104100       17.8567367625        7.0377116184
  H         0.5495079213       18.6321631417        7.8132919333
  C        15.7279536507       11.3885781468       15.7387849186
  H        14.9525535595       11.3890807480       14.9631563947
  C        15.7234766762        0.5673065469        4.9185136048
  H        14.9481171863        0.5669105552        4.1428397117
  C         4.9024234226       11.3923553771        4.9241687325
  H         4.1272055931       11.3925959304        4.1483574987
  C         4.9086691814        0.5707753505       15.7426299535
  H         4.1332367484        0.5700694316       14.9670263839
  C        15.7251428629       11.3886431807        7.0375895900
  H        14.9499977060       11.3891340833        7.8134817573
  C        15.7280579353        0.5670971708       17.8556790330
  H        14.9526897681        0.5666449608       18.6313435440
  C         4.9070066036       11.3923164796       17.8595322686
  H         4.1317407435       11.3926381504       18.6352858379
  C         4.9034090612        0.5710408487        7.0410197913
  H         4.1283579521        0.5703445302        7.8169952252
  C         7.0210476066       11.3914829504       15.7431760371
  H         7.7961518292       11.3910708280       14.9672279047
  C         7.0167315834        0.5723488940        4.9239327674
  H         7.7916464419        0.5730645653        4.1477909141
  C        17.8384834395       11.3875625698        4.9204879685
  H        18.6133248851       11.3869922211        4.1442688408
  C        17.8420144716        0.5680711707       15.7393398145
  H        18.6170018671        0.5685809744       14.9632804430
  C         7.0161166622       11.3916985983        7.0409442659
  H         7.7911942212       11.3913662855        7.8169172452
  C         7.0226354752        0.5721693735       17.8589482519
  H         7.7976149447        0.5729193247       18.6350040222
  C        17.8420745822       11.3874581613       17.8550296348
  H        18.6171969958       11.3868673620       18.6309594466
  C        17.8372969867        0.5681350340        7.0350964910
  H        18.6123734040        0.5685728669        7.8110882435
  C        15.7279475560       15.7387898799       11.3885780383
  H        14.9525482883       14.9631627482       11.3890792088
  C        15.7234763698        4.9185141388        0.5673083459
  H        14.9481151707        4.1428396362        0.5669122131
  C         4.9086649059       15.7426329112        0.5707766457
  H         4.1332315946       14.9670320546        0.5700697544
  C         4.9024262336        4.9241665570       11.3923528648
  H         4.1272071152        4.1483546033       11.3925926241
  C         7.0210447422       15.7431735294       11.3914830520
  H         7.7961488514       14.9672272467       11.3910717648
  C         7.0167415957        4.9239419204        0.5723535266
  H         7.7916597513        4.1478010711        0.5730701050
  C        17.8420137419       15.7393344505        0.5680753872
  H        18.6169994615       14.9632758690        0.5685856584
  C        17.8384883604        4.9204954708       11.3875608399
  H        18.6133318868        4.1442758173       11.3869911303
  C        15.7251462957        7.0375944252       11.3886398140
  H        14.9500012296        7.8134847346       11.3891296729
  C        15.7280552377       17.8556744604        0.5670994835
  H        14.9526854054       18.6313391379        0.5666463987
  C         4.9034128305        7.0410243632        0.5710441561
  H         4.1283608383        7.8169968369        0.5703468450
  C         4.9070009421       17.8595261618       11.3923152746
  H         4.1317326475       18.6352792191       11.3926363274
  C         7.0161200232        7.0409394897       11.3916969416
  H         7.7911977288        7.8169106191       11.3913646156
  C         7.0226367039       17.8589470701        0.5721724366
  H         7.7976186782       18.6350017250        0.5729236558
  C        17.8372997563        7.0350947763        0.5681373598
  H        18.6123765396        7.8110837042        0.5685751580
  C        17.8420683155       17.8550325942       11.3874610941
  H        18.6171922955       18.6309631339       11.3868716390
 Kr         1.6806841045       10.6308741208       10.6308736784
