     409
 i =     176, E =    -5136.6824627666
  N         2.9640554013        5.2426266516       15.9662764097
  C         1.6426907922        5.4953218059       16.2374389493
  N        13.8153968164        5.0815281910        5.0816000234
  C        12.4910736413        5.3364887944        5.3371385056
  N        19.5910119177       17.5391999151       15.9840572056
  C        20.9080374469       17.2843808625       16.2688662129
  N         8.8224218617       17.5987790108        5.1988477722
  C        10.1387909500       17.2910989675        5.4344165771
  N        19.6522248371        5.1796500317        6.7361016026
  C        20.9697693983        5.4620108010        6.4781323745
  N         8.8227175545        5.1982531402       17.5993859418
  C        10.1390760632        5.4336197248       17.2914808020
  N         2.9472593381       17.5399803023        6.7792787618
  C         1.6328881216       17.2626692033        6.5011495381
  N        13.7486851389       17.6110360366       17.6111031774
  C        12.4226342555       17.3599039977       17.3600228194
  N        15.9968643031        2.9779027943        5.1257076959
  C        16.2564932763        1.6640504621        5.4156141445
  N        15.8382054299       13.8561983000       16.0208709643
  C        16.1156235379       12.5353707766       16.2767858397
  N        15.9344170437       19.7263478043       17.5710121852
  C        16.2079664516       21.0404069150       17.2890691218
  N        15.9080718990        8.8418130989        6.6844106570
  C        16.1850836711       10.1631200387        6.4333148442
  N         6.6241107115       19.6968520428        5.1971372156
  C         6.3483963561       21.0132372315        5.4548817526
  N         6.6158287855        8.9555688046       16.0322607820
  C         6.3378352313       10.2742054688       16.3031102835
  N         6.6572181872        3.0931265836       17.5377012339
  C         6.3727317118        1.7778340336       17.2807574569
  N         6.7205576680       13.8122116006        6.8597326797
  C         6.4553206292       12.4968410418        6.5596901067
  N         5.1225560681       15.9611725087        3.0947558435
  C         5.3699017529       16.2526218935        1.7763799197
  N         5.1606465967        5.3051354831       13.8379399482
  C         5.4351873110        5.5495904635       12.5165561445
  N        17.4671964922       15.9939469654       19.7091083724
  C        17.2104044493       16.2604790322       21.0300234783
  N        17.4757684754        5.1411885206        8.8556068913
  C        17.2071001217        5.4235174825       10.1705727801
  N         5.0806484620        6.7639258635       19.7054011978
  C         5.3428930087        6.4798016784       21.0207987400
  N         5.0669603283       17.5929675240        8.9455215397
  C         5.3254157086       17.3219947608       10.2655516034
  N        17.5266756687        6.7058605400        2.9896549708
  C        17.2556345692        6.4471964141        1.6698193105
  N        17.4235136308       17.5466223797       13.8485139033
  C        17.1506908023       17.2727257521       12.5329045191
  N         5.0842557536        3.0201710408        6.7231871089
  C         5.3433719847        1.6993628254        6.4602851110
  N         5.0476265959       13.9052815388       17.6274676702
  C         5.3141802298       12.5895897643       17.3408842382
  N        17.4911739247       19.6707140922        6.7575439057
  C        17.2376098871       20.9886952050        6.4729105502
  N        17.4579747732        8.8967589385       17.5108130642
  C        17.1668140812       10.2125240768       17.2561327813
  N         5.0516118226       19.7771568546       16.0550492564
  C         5.3373772128       21.0958001267       16.3012046938
  N         5.1542008236        8.8850226913        5.1753764481
  C         5.4289427853       10.1951444332        5.4799132643
  N        17.4935853194        3.0279198478       15.9672369446
  C        17.2230091917        1.7115279698       16.2461276548
  N        17.4920331647       13.8093822238        5.1842079123
  C        17.2174419235       12.4911339172        5.4453748332
  N         2.9044266438       16.0540663039       17.6099835127
  C         1.5875058466       16.3031089563       17.3187229901
  N        13.7691268559       15.9293536660        6.6663749563
  C        12.4548176768       16.2110658997        6.3909693263
  N        19.6439104126       15.9620000138        5.1984153238
  C        20.9601864273       16.2354117451        5.4751625184
  N         8.7534848498       16.1151806148       16.1154544509
  C        10.0767609090       16.3724081477       16.3726621956
  N        19.6331675426        6.7542770054       17.5186718668
  C        20.9522889124        6.4883688076       17.2537976432
  N         8.8408906136        6.6038937012        6.6056320433
  C        10.1586812811        6.3362521877        6.3379667291
  N         2.9691399982        6.7601880675        5.2044601443
  C         1.6512363664        6.4897503795        5.4744208269
  N        13.7692956997        6.6657196123       15.9294335722
  C        12.4550414991        6.3900434260       16.2111152126
  N        15.9581873188        5.1812453657       19.6717252120
  C        16.2371746671        5.4425830072       20.9874950484
  N        15.8721459751       15.9844120916        8.8897690066
  C        16.1317209877       16.2598992186       10.2104058319
  N        15.9492828530       17.5339687229        3.0380401763
  C        16.2161735005       17.2703400079        1.7197162055
  N        15.9363882165        6.7400928168       13.8041312416
  C        16.2006383536        6.4595666132       12.4866544210
  N         6.6122450294        5.1390148928        2.9989348975
  C         6.3425595996        5.4283499478        1.6876847819
  N         6.5994147074       16.0696064482       13.9205164343
  C         6.3268511148       16.3231056243       12.5994491349
  N         6.5935631881       17.6261199602       19.7853012177
  C         6.3428822574       17.3271588404       21.1001529629
  N         6.7325120883        6.7079389236        8.8446868564
  C         6.4585202031        6.4832076520       10.1695205219
  N        19.6330444625       17.5184662456        6.7543347868
  C        20.9521743427       17.2536684545        6.4883973285
  N         8.7812811069       17.6691856034       17.6691775700
  C        10.0963276038       17.3880379554       17.3881348528
  N         2.9691929257        5.2042660492        6.7608974886
  C         1.6512977582        5.4740434958        6.4903891696
  N        13.7836025697        5.1688022374       17.5415515474
  C        12.4626070755        5.4173658734       17.2659704157
  N         2.9044010717       17.6099850978       16.0540834644
  C         1.5874922216       17.3186998452       16.3031454506
  N        13.7832995187       17.5410657442        5.1690054538
  C        12.4623197781       17.2656203097        5.4179275006
  N        19.6440053375        5.1984019749       15.9621515370
  C        20.9602896783        5.4751773480       16.2354985099
  N         8.8427272195        5.0521680613        5.0522043437
  C        10.1631801032        5.3215205580        5.3221884730
  N         6.5934920047       19.7853301300       17.6260826282
  C         6.3428075392       21.1001762175       17.3271183246
  N         6.7306041482        8.8441460042        6.7066113936
  C         6.4569950519       10.1692065717        6.4819061356
  N         6.6123640685        2.9990261469        5.1392895688
  C         6.3426502028        1.6877551529        5.4285876043
  N         6.5994287727       13.9204360359       16.0693907924
  C         6.3266791379       12.5994198155       16.3229396816
  N        15.9493989875        3.0379311534       17.5341961268
  C        16.2162308754        1.7196182431       17.2705012590
  N        15.9362254578       13.8039380992        6.7401494112
  C        16.2004425106       12.4864514822        6.4596373324
  N        15.9579742799       19.6714366550        5.1813867992
  C        16.2369982013       20.9872181729        5.4426851460
  N        15.8720833436        8.8896104096       15.9846750940
  C        16.1316908208       10.2102573232       16.2600897873
  N        17.4912919443        6.7574900731       19.6710059705
  C        17.2377362949        6.4728596610       20.9889860759
  N        17.4579520874       17.5106225614        8.8968710557
  C        17.1668000512       17.2559805082       10.2126467486
  N         5.0838110041        6.7225957353        3.0200912690
  C         5.3431229913        6.4598787709        1.6992575734
  N         5.0474880258       17.6275521557       13.9051583594
  C         5.3142339074       17.3409553293       12.5895043026
  N        17.4934804983       15.9670137793        3.0280080993
  C        17.2229554322       16.2459703681        1.7116152285
  N        17.4920895272        5.1840585910       13.8096252939
  C        17.2175565780        5.4452269533       12.4913695837
  N         5.0516500310       16.0551290704       19.7771177842
  C         5.3374097831       16.3012811092       21.0957574401
  N         5.1559717512        5.1768611053        8.8850850329
  C         5.4304931584        5.4812687610       10.1951721230
  N        17.4671833635       19.7090295658       15.9940372204
  C        17.2103999147       21.0299434754       16.2605781002
  N        17.4756840079        8.8553689516        5.1415710168
  C        17.2069453552       10.1703425395        5.4237634052
  N         5.1227307681        3.0948864998       15.9610279471
  C         5.3699366275        1.7764384461       16.2524877378
  N         5.1595384065       13.8378073750        5.3042547497
  C         5.4339635146       12.5164449914        5.5485487898
  N        17.5265728500        2.9893247149        6.7059657979
  C        17.2555091166        1.6695127844        6.4472627178
  N        17.4235530069       13.8483978462       17.5466932113
  C        17.1507247138       12.5327830914       17.2728200875
  N         5.0806812038       19.7053983604        6.7640474958
  C         5.3429651272       21.0208269267        6.4799798989
  N         5.0668266451        8.9456258159       17.5932547192
  C         5.3252344308       10.2656244026       17.3220817851
  N        19.6522409361        6.7356554083        5.1800593000
  C        20.9697689378        6.4776448878        5.4624225677
  N         8.8131964091        6.6931052541       15.9881243879
  C        10.1333547406        6.4077112988       16.2363931711
  N         2.9473653923        6.7793160859       17.5400023715
  C         1.6330085342        6.5011445557       17.2626747881
  N        13.7874075420        6.6373881823        6.6385453177
  C        12.4772996217        6.3504215422        6.3519280741
  N         2.9638754272       15.9664665115        5.2423846782
  C         1.6425690956       16.2375397873        5.4952228226
  N        13.7084818291       16.0550078184       16.0552055171
  C        12.3983950026       16.3449247096       16.3451474589
  N        19.5910273944       15.9839697690       17.5392632381
  C        20.9080484389       16.2687968929       17.2844354410
  N         8.8129484302       15.9880514193        6.6943762251
  C        10.1330856710       16.2363690460        6.4089322520
  N         6.6572422302       17.5376351808        3.0931518458
  C         6.3727995288       17.2807863174        1.7778242677
  N         6.7217413664        6.8607377850       13.8126292268
  C         6.4565800994        6.5608208573       12.4972137018
  N         6.6241194996        5.1970221509       19.6968698395
  C         6.3483687315        5.4547545278       21.0132205740
  N         6.6160849571       16.0320870171        8.9556481687
  C         6.3381049696       16.3031073136       10.2742301566
  N        15.9344242713       17.5709269242       19.7264338676
  C        16.2079678958       17.2889709330       21.0404937099
  N        15.9084381687        6.6843314607        8.8420104262
  C        16.1853913700        6.4332227257       10.1633194516
  N        15.9970059838        5.1255467412        2.9781438749
  C        16.2566506941        5.4155119091        1.6643140946
  N        15.8381759887       16.0207758614       13.8563371114
  C        16.1156040419       16.2766719207       12.5355098369
 Zn        14.5419488006       14.7501416703       14.7503136610
 Br        13.2668977105       13.4154975236       13.4157790039
 Zn        14.7140908973        3.8047945278        3.8048737817
 Br        13.4128883751        2.4843937466        2.4844874292
 Zn         3.8538562277       14.6665676753        3.9872006463
 Br         2.5611649306       13.3252989147        2.6770468682
 Zn         3.8544572019        3.9878576865       14.6663889279
 Br         2.5620079106        2.6779093699       13.3246951130
 Zn         7.9798472853        8.1051873127       14.8102045321
 Br         9.5902331152        9.5952522991       14.2022337853
 Zn         7.9427325149       18.8669221282        3.9123032068
 Br         9.2447654261       20.1744545908        2.5837117258
 Zn        18.7912193516        8.0098579095        3.8667088225
 Br        20.1104272918        9.3345523945        2.5659096039
 Zn        18.7313515180       18.8303559618       14.6921848096
 Br        20.0530208968       20.1358380159       13.3744332830
 Zn         7.9783603467       14.8084591051        8.1048507195
 Br         9.5864244923       14.1900247980        9.5929134745
 Zn         7.9426618608        3.9118583965       18.8673021614
 Br         9.2445430622        2.5831975541       20.1748500615
 Zn        18.7313714942       14.6920669768       18.8304139243
 Br        20.0530816004       13.3743588946       20.1358944099
 Zn        18.7910989887        3.8659951697        8.0100307270
 Br        20.1105720110        2.5654522455        9.3347023255
 Zn        14.6099600940        7.9488485506        7.9491175105
 Br        13.3528655680        9.2903893447        9.2915589861
 Zn        14.6532248708       18.8855048378       18.8855778232
 Br        13.3677752080       20.2151421418       20.2152159997
 Zn         3.7810225297        8.0596904304       18.8670493932
 Br         2.4508943670        9.3434464758       20.1951844195
 Zn         3.7810799299       18.8668443382        8.0596923170
 Br         2.4510975589       20.1951251315        9.3435119334
 Zn        14.6140661054       14.6676628172        8.0044505521
 Br        13.3340489780       13.3198411277        9.3184270703
 Zn        14.6577603110        3.8916608966       18.8297931153
 Br        13.3443224948        2.5803806878       20.1491902706
 Zn         3.7541882813       14.7678046304       18.9178740183
 Br         2.4445728533       13.4476872171       20.2320286641
 Zn         3.8318640592        3.8987757189        8.0433186776
 Br         2.5154654911        2.6022316602        9.3706351492
 Zn         8.0336167835        7.8999900177        7.8985512398
 Br         9.6414191452        9.0377945419        9.0112067158
 Zn         7.8852760789       18.9424969795       18.9424600251
 Br         9.1780431864       20.2666479879       20.2666398628
 Zn        18.7679224081        8.0562996032       18.7992323422
 Br        20.0765544113        9.3734583548       20.1169121759
 Zn        18.7678717101       18.7989298191        8.0563426036
 Br        20.0764699950       20.1167366765        9.3734345357
 Zn        14.6140760138        8.0042234065       14.6678934169
 Br        13.3338818910        9.3179522386       13.3200064312
 Zn        14.6575537508       18.8294610364        3.8918319460
 Br        13.3441382196       20.1489057418        2.5805820519
 Zn         3.8307540736        8.0425215324        3.8981417517
 Br         2.5138468891        9.3690503278        2.6012618483
 Zn         3.7540438009       18.9178925140       14.7677662475
 Br         2.4444484792       20.2322304698       13.4478064263
 Zn         7.8956944222       14.8290079424       14.8289129718
 Br         9.4263960049       13.6515321470       13.6480849393
 Zn         7.9002687422        3.7961726575        3.7961638981
 Br         9.1494893488        2.4529577792        2.4530914459
 Zn        18.7826850505       14.6732768798        3.8947075273
 Br        20.1146996492       13.3791032833        2.5766327077
 Zn        18.7827588178        3.8946447447       14.6734932715
 Br        20.1148397159        2.5765821277       13.3793504004
 Zn         5.8935900222        6.0193915415       16.7827262164
 Zn        16.6597727063       16.7811599360       16.7812438868
 Zn        16.7234638439        5.9078586765        5.9080935562
 Zn         5.8934447439       16.7822878174        6.0193414015
 Zn         5.8972764533        5.9083836535        5.9080768959
 Zn        16.7095754195       16.7342720109        5.9605715316
 Zn         5.8315740933       16.8667287573       16.8666637100
 Zn        16.7096770687        5.9604882837       16.7346458230
  N         3.7029026437        6.0177474089       16.7544643059
  N        14.5477190717        5.8668051307        5.8671536352
  N        18.8442084441       16.7542492848       16.7543338712
  N         8.0720762193       16.8105442386        5.9630895653
  N        18.9059387110        5.9507753204        5.9511895197
  N         8.0723347708        5.9623000375       16.8109440880
  N         3.7027682744       16.7545652552        6.0175726520
  N        14.4751838839       16.8231242120       16.8232354009
  N        16.7637928428        3.7304225649        5.9078469013
  N        16.6302918876       14.5986563241       16.7884241143
  N        16.6959531672       18.9706194216       16.7861520492
  N        16.6905819783        8.1016894132        5.9051075636
  N         5.8567531085       18.9542929767        5.9880970825
  N         5.8480629405        8.2046437183       16.8141601143
  N         5.8994135548        3.8405948706       16.7418067056
  N         5.9357383262       14.5722236400        6.0927698799
  N         5.8993170814       16.7418355424        3.8405511566
  N         5.9367912857        6.0935808045       14.5724834834
  N        16.6959654261       16.7860681651       18.9707005005
  N        16.6907720073        5.9048482417        8.1019172972
  N         5.8567628990        5.9879925219       18.9542963793
  N         5.8481820456       16.8138443022        8.2046245637
  N        16.7639111913        5.9076944188        3.7306987833
  N        16.6302558352       16.7883494566       14.5987834895
  N         5.8517939214        3.7549944776        5.9238894077
  N         5.8259386463       14.6604626308       16.8577842116
  N        16.7176555816       18.9238560085        5.9751369833
  N        16.6746069251        8.1467250392       16.7417802010
  N         5.8132203044       19.0356090275       16.8537876970
  N         5.9419972082        8.1173213557        5.9203603437
  N        16.7219524718        3.7795801635       16.7472207975
  N        16.7156975742       14.5531189196        5.9666588664
  N         3.6510234404       16.8431394817       16.8431378681
  N        14.5232157043       16.7354149600        5.9258149680
  N        18.8921839796       16.7377915781        5.9739778472
  N         8.0210256586       16.8971179595       16.8972129149
  N        18.8922972944        5.9739248231       16.7380053298
  N         8.0948038076        5.8296365230        5.8302559340
  N         3.7157307016        5.9811558546        5.9814756351
  N        14.5234443856        5.9255455911       16.7357688180
  N        16.7178290818        5.9750313233       18.9241428611
  N        16.6746230119       16.7415245435        8.1468606728
  N        16.7218127980       16.7469570479        3.7796741418
  N        16.7157813602        5.9665557055       14.5533492485
  N         5.8514028439        5.9234621571        3.7548778225
  N         5.8257789756       16.8579311091       14.6604380462
  N         5.8132775590       16.8538518702       19.0355677430
  N         5.9439445979        5.9218025357        8.1175664963
  C        11.2262799843       15.8108696482       15.8111940929
  H        11.2023266319       15.0358872320       15.0362161784
  C        11.3338227457        4.7798845509        4.7801557822
  H        11.3459226129        4.0050102789        4.0046503318
  C         0.4866031128       15.6844493039        4.9380102426
  H         0.4930912558       14.9051323417        4.1665006536
  C         0.4867053058        4.9380965623       15.6844173424
  H         0.4931288796        4.1666173863       14.9050681629
  C        11.2933901310        6.9146465736       15.6457900192
  H        11.2913515277        7.6653023088       14.8482659057
  C        11.3031478982       17.8458058786        4.8950682446
  H        11.3065899322       18.6509404824        4.1507299143
  C         0.4903354526        7.0346660061        4.9201188747
  H         0.4894743063        7.8092281273        4.1436190789
  C         0.4278317297       17.8506824496       15.7351111322
  H         0.4274573135       18.6262281131       14.9596103121
  C        11.2931938794       15.6460287595        6.9160648358
  H        11.2911107250       14.8486239725        7.6668895837
  C        11.3034905822        4.8945249336       17.8463058168
  H        11.3070048109        4.1504242468       18.6516474079
  C         0.4278600553       15.7350502114       17.8507143102
  H         0.4275062250       14.9595383788       18.6262496032
  C         0.4903195366        4.9198155788        7.0353019913
  H         0.4893870680        4.1434397995        7.8099636383
  C        11.3138368979        6.8898472010        6.8922288139
  H        11.2993943449        7.6644864346        7.6668539862
  C        11.2725536170       17.9230903061       17.9231428108
  H        11.2927297243       18.6983439908       18.6983142350
  C         0.4675656383        7.0402600292       17.8119789587
  H         0.4602299533        7.8106696169       18.5926433527
  C         0.4674279794       17.8118751239        7.0403179875
  H         0.4600503678       18.5924929436        7.8107753926
  C        15.5631664451       11.3727492425       15.7307368247
  H        14.7753405993       11.3736555491       14.9679009650
  C        15.7052640855        0.5037469223        4.8702149524
  H        14.9410196873        0.5011031427        4.0835273493
  C         4.8779297494       11.3723595235        4.9707798833
  H         4.0967513924       11.3997974763        4.2007491279
  C         4.8101903433        0.6124170624       15.7203954504
  H         4.0426183804        0.6052655289       14.9372450429
  C        15.6420370531       11.3221929947        6.9945726603
  H        14.8654613735       11.3195638991        7.7689795013
  C        15.6685862291        0.5661571732       17.8361055666
  H        14.9011274841        0.5754418212       18.6196467091
  C         4.7712288249       11.4207452493       17.8810808342
  H         4.0003849789       11.4100144622       18.6610568526
  C         4.7985160429        0.5449518449        7.0269685155
  H         4.0321443426        0.5513567721        7.8114854864
  C         6.8771927508       11.4448051162       15.7616273198
  H         7.6645802591       11.4539067523       14.9995319146
  C         6.8881557665        0.5254280563        4.8828925028
  H         7.6536386438        0.5186677818        4.0972057455
  C        17.7641180205       11.3334677401        4.8874494116
  H        18.5426801161       11.3369210319        4.1150578816
  C        17.7611467018        0.5445427113       15.6981288655
  H        18.5290421353        0.5351891776       14.9152580384
  C         7.0097709787       11.3157144175        7.0626124986
  H         7.7978207362       11.2777014666        7.8220647429
  C         6.9021107505        0.6226495086       17.8596131247
  H         7.6691311637        0.6290537976       18.6437615347
  C        17.7180505914       11.3726319475       17.8039605014
  H        18.5083345031       11.3728476745       18.5645543093
  C        17.7881403838        0.5111913200        7.0188652578
  H        18.5512281242        0.5143203660        7.8065063838
  C        15.5631820331       15.7305730163       11.3728973150
  H        14.7753770854       14.9677160675       11.3737923257
  C        15.7054450251        4.8700990192        0.5040096478
  H        14.9412192009        4.0833919636        0.5013496067
  C         4.8101608987       15.7205251999        0.6123503394
  H         4.0425565097       14.9374062975        0.6052270121
  C         4.8792842851        4.9720043454       11.3723987369
  H         4.0980690480        4.2019729500       11.3995562136
  C         6.8775491330       15.7618053657       11.4448824311
  H         7.6649413249       14.9996843390       11.4540630420
  C         6.8881778614        4.8827608227        0.5253827312
  H         7.6537241255        4.0971491878        0.5186072649
  C        17.7611302926       15.6980120971        0.5446260566
  H        18.5290292020       14.9151432892        0.5352700227
  C        17.7642009158        4.8872084804       11.3337296824
  H        18.5426965016        4.1147541748       11.3372371683
  C        15.6423512586        6.9945521532       11.3223643667
  H        14.8658417639        7.7690262771       11.3196644170
  C        15.6685690522       17.8359796708        0.5662521541
  H        14.9011094545       18.6195196628        0.5755395982
  C         4.7982966836        7.0266607822        0.5449258331
  H         4.0318580014        7.8111208706        0.5513582749
  C         4.7713223018       17.8810452955       11.4205963173
  H         4.0004110948       18.6609555505       11.4097660884
  C         7.0110454652        7.0638997625       11.3162237599
  H         7.7985951735        7.8238370255       11.2786729968
  C         6.9022221933       17.8596082483        0.6226385018
  H         7.6692930694       18.6437071736        0.6290441090
  C        17.7882378229        7.0188331266        0.5114927713
  H        18.5512912187        7.8065073913        0.5146204020
  C        17.7180112290       17.8038562409       11.3727429442
  H        18.5082780356       18.5644670882       11.3729453839
 Kr         9.1314146443       11.2945708746       11.3041402048
