     409
 i =     176, E =    -5136.7105719779
  N         3.0230400434        5.2030074743       16.0247715843
  C         1.7048227839        5.4729715347       16.2936888301
  N        13.8371937959        5.2005633185        5.2005670488
  C        12.5195356481        5.4717915779        5.4717942822
  N        19.7078950596       17.5762095026       16.0198284100
  C        21.0258405819       17.3072324941       16.2914386499
  N         8.8839038056       17.5798837622        5.2043463675
  C        10.2018318153       17.3079472607        5.4729982078
  N        19.6998588068        5.2001114197        6.7565322899
  C        21.0177490957        5.4722297245        6.4880110299
  N         8.8839052053        5.2043433986       17.5798836744
  C        10.2018305517        5.4729957963       17.3079470840
  N         3.0210377135       17.5801394926        6.7604392828
  C         1.7034477860       17.3089913698        6.4892196258
  N        13.8468623574       17.5761866456       17.5761852948
  C        12.5287966057       17.3065100368       17.3065079578
  N        15.9912909933        3.0454920771        5.1990671871
  C        16.2615943699        1.7279246776        5.4690776541
  N        16.0001283842       13.8658193441       16.0184089006
  C        16.2695836712       12.5482084764       16.2885022821
  N        16.0006949217       19.7292109760       17.5761279974
  C        16.2697360980       21.0468192911       17.3056452797
  N        15.9937850651        8.9099635269        6.7565061187
  C        16.2639827140       10.2274544319        6.4863192959
  N         6.7294891498       19.7354450096        5.2050822989
  C         6.4585125025       21.0529095673        5.4748765942
  N         6.7309825491        8.9145734130       16.0240944227
  C         6.4616148450       10.2322566468       16.2940513319
  N         6.7307287434        3.0513116780       17.5818769224
  C         6.4630526539        1.7334599054       17.3108329806
  N         6.7259828553       13.8707595125        6.7634398192
  C         6.4544747584       12.5533058439        6.4946219044
  N         5.1778137137       16.0241324523        3.0503490090
  C         5.4488195293       16.2938799662        1.7328688988
  N         5.1732332479        5.2055475985       13.8714825439
  C         5.4404273227        5.4774867746       12.5537279890
  N        17.5540920230       16.0185209437       19.7296165724
  C        17.2841271746       16.2888018994       21.0471893328
  N        17.5465913475        5.1984498594        8.9094038004
  C        17.2780541720        5.4691781476       10.2270773669
  N         5.1755595590        6.7624336777       19.7347011163
  C         5.4439969208        6.4916784502       21.0524108785
  N         5.1765964097       17.5809880270        8.9152813996
  C         5.4468247034       17.3105801985       10.2326957396
  N        17.5456561183        6.7558044011        3.0459023462
  C        17.2764642091        6.4854705395        1.7282831150
  N        17.5543094856       17.5753863344       13.8654051434
  C        17.2843113144       17.3050473150       12.5478747848
  N         5.1723997604        3.0509434565        6.7621621959
  C         5.4422056365        1.7333483019        6.4916290684
  N         5.1791857917       13.8711365201       17.5810613987
  C         5.4480595630       12.5534695500       17.3105749831
  N        17.5487173814       19.7300591127        6.7553222895
  C        17.2781393126       21.0474912069        6.4852392680
  N        17.5504592057        8.9092572788       17.5766939616
  C        17.2823815609       10.2269889290       17.3056357391
  N         5.1812666778       19.7343290389       16.0237026581
  C         5.4507644843       21.0519649288       16.2937400757
  N         5.1700775973        8.9152970677        5.2064406552
  C         5.4388260065       10.2328457933        5.4779684412
  N        17.5510606932        3.0459431841       16.0180886437
  C        17.2824995031        1.7281524272       16.2885903002
  N        17.5502566118       13.8654163153        5.1996868704
  C        17.2799038243       12.5479075861        5.4697384592
  N         3.0259257727       16.0248997349       17.5812516097
  C         1.7080552960       16.2938647280       17.3096235523
  N        13.8422660734       16.0192708651        6.7561363564
  C        12.5242771137       16.2901895920        6.4865370065
  N        19.7048347757       16.0199446901        5.2002430124
  C        21.0224946312       16.2912226489        5.4713828249
  N         8.8870836929       16.0227982334       16.0227987719
  C        10.2053849706       16.2922644908       16.2922641388
  N        19.7029116906        6.7562855677       17.5767503241
  C        21.0211601166        6.4870960818       17.3070930580
  N         8.8807065363        6.7605935108        6.7605918883
  C        10.1983955704        6.4894752770        6.4894746011
  N         3.0179420184        6.7613470096        5.2049780358
  C         1.7000083229        6.4903477262        5.4745668503
  N        13.8422699886        6.7561327521       16.0192756308
  C        12.5242785872        6.4865334451       16.2901929540
  N        15.9952222488        5.1979111170       19.7291945234
  C        16.2635862206        5.4685658973       21.0469748824
  N        15.9971654434       16.0191116386        8.9099289514
  C        16.2679709936       16.2888254060       10.2274039116
  N        15.9970879649       17.5752139650        3.0450689322
  C        16.2678864803       17.3052458287        1.7276426685
  N        15.9966045378        6.7571154868       13.8659317315
  C        16.2655181281        6.4866149277       12.5482753785
  N         6.7253593470        5.2044440902        3.0515922215
  C         6.4563931904        5.4746259148        1.7338446860
  N         6.7325802883       16.0237673759       13.8707400644
  C         6.4625141122       16.2938370565       12.5531482563
  N         6.7355278277       17.5809151814       19.7349181028
  C         6.4654460875       17.3103994930       21.0524564331
  N         6.7239029293        6.7638567090        8.9150668439
  C         6.4532408717        6.4948761857       10.2326033325
  N        19.7029010319       17.5767443684        6.7562837781
  C        21.0211635996       17.3070904670        6.4870974806
  N         8.8890547069       17.5791644753       17.5791625365
  C        10.2066476276       17.3080508038       17.3080488800
  N         3.0179387940        5.2049731180        6.7613481594
  C         1.7000080694        5.4745617654        6.4903501395
  N        13.8421034865        5.1993651983       17.5754337403
  C        12.5241892287        5.4707360740       17.3059696788
  N         3.0259252958       17.5812534640       16.0249015201
  C         1.7080571384       17.3096251410       16.2938652854
  N        13.8421071130       17.5754309263        5.1993674002
  C        12.5241911206       17.3059669110        5.4707394031
  N        19.7048400027        5.2002416740       16.0199449573
  C        21.0224887476        5.4713825187       16.2912246924
  N         8.8789142722        5.2041656434        5.2041680540
  C        10.1971195403        5.4736959304        5.4736979875
  N         6.7355317189       19.7349297998       17.5809217514
  C         6.4654472467       21.0524575621       17.3104036760
  N         6.7238988507        8.9150621148        6.7638547633
  C         6.4532374475       10.2326052072        6.4948765458
  N         6.7253573402        3.0515914139        5.2044416174
  C         6.4563920235        1.7338445411        5.4746244732
  N         6.7325807825       13.8707342278       16.0237644282
  C         6.4625134055       12.5531516157       16.2938351374
  N        15.9970880793        3.0450724482       17.5752104730
  C        16.2678856174        1.7276410448       17.3052434809
  N        15.9966072562       13.8659315906        6.7571201847
  C        16.2655206096       12.5482764993        6.4866186494
  N        15.9952229162       19.7291950230        5.1979107107
  C        16.2635886016       21.0469786310        5.4685648344
  N        15.9971691512        8.9099229767       16.0191105768
  C        16.2679722783       10.2273996525       16.2888241979
  N        17.5487179397        6.7553223725       19.7300597715
  C        17.2781378335        6.4852399270       21.0474877162
  N        17.5504576198       17.5766963511        8.9092623753
  C        17.2823808352       17.3056368291       10.2269902717
  N         5.1723970598        6.7621596488        3.0509450884
  C         5.4422035639        6.4916272342        1.7333484862
  N         5.1791882114       17.5810600479       13.8711423142
  C         5.4480600939       17.3105759546       12.5534674304
  N        17.5510628179       16.0180886365        3.0459408813
  C        17.2825003325       16.2885917629        1.7281510877
  N        17.5502562839        5.1996876465       13.8654161205
  C        17.2799033004        5.4697378958       12.5479067785
  N         5.1812632756       16.0237030764       19.7343239304
  C         5.4507606056       16.2937379814       21.0519657105
  N         5.1700784901        5.2064419062        8.9152984581
  C         5.4388289403        5.4779693282       10.2328435715
  N        17.5540936608       19.7296181256       16.0185212896
  C        17.2841277110       21.0471910981       16.2888007053
  N        17.5465908118        8.9094048901        5.1984480928
  C        17.2780547250       10.2270782635        5.4691774559
  N         5.1778134337        3.0503463771       16.0241305646
  C         5.4488195275        1.7328676155       16.2938794422
  N         5.1732300590       13.8714837334        5.2055465445
  C         5.4404236807       12.5537297560        5.4774866049
  N        17.5456577187        3.0458944391        6.7558070331
  C        17.2764650342        1.7282860137        6.4854694253
  N        17.5543077507       13.8654061115       17.5753865485
  C        17.2843104954       12.5478745268       17.3050471779
  N         5.1755639206       19.7346950942        6.7624312993
  C         5.4439995700       21.0524098498        6.4916776253
  N         5.1766009693        8.9152744638       17.5809851642
  C         5.4468274949       10.2326967837       17.3105776938
  N        19.6998577068        6.7565332573        5.2001146110
  C        21.0177501254        6.4880105368        5.4722331064
  N         8.8838986293        6.7595661120       16.0222747591
  C        10.2018610976        6.4882096426       16.2915889028
  N         3.0210444972        6.7604363829       17.5801381535
  C         1.7034417867        6.4892176078       17.3089918861
  N        13.8391238499        6.7570352909        6.7570347262
  C        12.5208266706        6.4875905079        6.4875903531
  N         3.0230317368       16.0247693020        5.2030052653
  C         1.7048267507       16.2936888562        5.4729729186
  N        13.8453987100       16.0197626779       16.0197631136
  C        12.5277298214       16.2907418600       16.2907410719
  N        19.7078898951       16.0198306555       17.5762054969
  C        21.0258375956       16.2914409821       17.3072288633
  N         8.8838975993       16.0222763776        6.7595667776
  C        10.2018598260       16.2915891525        6.4882115642
  N         6.7307317053       17.5818723118        3.0513140836
  C         6.4630557247       17.3108306584        1.7334619093
  N         6.7259876828        6.7634400560       13.8707534058
  C         6.4544788962        6.4946207427       12.5533003392
  N         6.7294919385        5.2050847207       19.7354489103
  C         6.4585132605        5.4748793443       21.0529089497
  N         6.7309805312       16.0240969801        8.9145741048
  C         6.4616124564       16.2940549467       10.2322534148
  N        16.0006926875       17.5761288593       19.7292138541
  C        16.2697353881       17.3056472030       21.0468213035
  N        15.9937828003        6.7565060191        8.9099644661
  C        16.2639805503        6.4863179219       10.2274550774
  N        15.9912921966        5.1990714990        3.0455024924
  C        16.2615920295        5.4690796696        1.7279239180
  N        16.0001298974       16.0184090744       13.8658212521
  C        16.2695848722       16.2885033457       12.5482116289
 Zn        14.7085389437       14.7250976189       14.7250984698
 Br        13.3911343947       13.4121773329       13.4121785944
 Zn        14.7006695469        3.9054853894        3.9054814720
 Br        13.3825786004        2.5928102288        2.5928114199
 Zn         3.8867697008       14.7304370119        3.9081089753
 Br         2.5695210703       13.4174124417        2.5949526976
 Zn         3.8867669990        3.9081123566       14.7304349677
 Br         2.5695230420        2.5949563550       13.4174158698
 Zn         8.0193880640        8.0542285453       14.7283107969
 Br         9.3361699506        9.3672750318       13.4146071637
 Zn         8.0199714825       18.8753186446        3.9109831167
 Br         9.3370950092       20.1893027859        2.5984229716
 Zn        18.8363372669        8.0500147374        3.9044639358
 Br        20.1534668591        9.3626071821        2.5907802934
 Zn        18.8443530654       18.8702286527       14.7245113839
 Br        20.1615020823       20.1828431362       13.4107689933
 Zn         8.0193891555       14.7283143996        8.0542239914
 Br         9.3361653816       13.4146082422        9.3672715817
 Zn         8.0199721365        3.9109832228       18.8753218226
 Br         9.3370935410        2.5984240134       20.1893069717
 Zn        18.8443496139       14.7245128151       18.8702256318
 Br        20.1615021009       13.4107694947       20.1828419718
 Zn        18.8363420886        3.9044653393        8.0500144957
 Br        20.1534620785        2.5907840220        9.3626064952
 Zn        14.7041021622        8.0512209251        8.0512167062
 Br        13.3881185433        9.3649990532        9.3650003079
 Zn        14.7100785185       18.8705881181       18.8705883362
 Br        13.3946300161       20.1844759933       20.1844769813
 Zn         3.8848369084        8.0552068057       18.8737557353
 Br         2.5687315399        9.3695324363       20.1868967498
 Zn         3.8848394643       18.8737578149        8.0552052750
 Br         2.5687351033       20.1868928670        9.3695284213
 Zn        14.7062849380       14.7253082901        8.0511743176
 Br        13.3895217622       13.4124540900        9.3649516534
 Zn        14.7058670850        3.9037944244       18.8691638541
 Br        13.3890118180        2.5902098761       20.1821290446
 Zn         3.8892057655       14.7300610232       18.8748611015
 Br         2.5729666419       13.4174243572       20.1893823661
 Zn         3.8819779128        3.9100346702        8.0551049038
 Br         2.5652028680        2.5975999865        9.3695161175
 Zn         8.0168125561        8.0548143781        8.0548110405
 Br         9.3338471197        9.3680290845        9.3680261099
 Zn         8.0270337452       18.8739312312       18.8739329670
 Br         9.3442835012       20.1870344879       20.1870327815
 Zn        18.8388228094        8.0499571914       18.8718532572
 Br        20.1562621216        9.3624866001       20.1854433742
 Zn        18.8388264186       18.8718529054        8.0499591898
 Br        20.1562614848       20.1854431274        9.3624834848
 Zn        14.7062837994        8.0511706340       14.7253094835
 Br        13.3895215053        9.3649496979       13.4124558825
 Zn        14.7058686364       18.8691670277        3.9037928251
 Br        13.3890114606       20.1821310374        2.5902097556
 Zn         3.8819792927        8.0551065269        3.9100352435
 Br         2.5651977325        9.3695185030        2.5975969513
 Zn         3.8892040060       18.8748617624       14.7300589537
 Br         2.5729699361       20.1893837898       13.4174274128
 Zn         8.0218895059       14.7284860638       14.7284862861
 Br         9.3381339263       13.4148342036       13.4148311685
 Zn         8.0149597205        3.9096611986        3.9096604717
 Br         9.3312783641        2.5961061779        2.5961059021
 Zn        18.8412554764       14.7245078188        3.9059806053
 Br        20.1583705497       13.4108111657        2.5933140696
 Zn        18.8412497628        3.9059787789       14.7245068604
 Br        20.1583653741        2.5933192988       13.4108134098
 Zn         5.9522712966        5.9867426711       16.8066089275
 Zn        16.7752934514       16.7965763954       16.7965771246
 Zn        16.7695849319        5.9768427682        5.9768322783
 Zn         5.9522807117       16.8066130029        5.9867356649
 Zn         5.9493174588        5.9872388426        5.9872354340
 Zn        16.7724308800       16.7967890247        5.9766691631
 Zn         5.9553073418       16.8065089463       16.8065105000
 Zn        16.7724210662        5.9766621910       16.7967878533
  N         3.7685181864        5.9820433983       16.8030071772
  N        14.5846132684        5.9783661589        5.9783678625
  N        18.9613749782       16.7972984544       16.7973245303
  N         8.1373888151       16.8018719716        5.9827224565
  N        18.9533700074        5.9773286982        5.9773377665
  N         8.1373890361        5.9827176731       16.8018740129
  N         3.7685205577       16.8030187081        5.9820550550
  N        14.5926025491       16.7976875074       16.7976875634
  N        16.7681959757        3.7925117165        5.9774753310
  N        16.7772641696       14.6124207510       16.7969883785
  N        16.7775865809       18.9825061388       16.7973402504
  N        16.7697512823        8.1627648473        5.9773463512
  N         5.9531612537       18.9883849259        5.9841316785
  N         5.9535807674        8.1682494458       16.8026553274
  N         5.9534157005        3.7978745877       16.8035165680
  N         5.9508407044       14.6181660681        5.9836233819
  N         5.9534206028       16.8035185895        3.7978784503
  N         5.9508232415        5.9836031637       14.6181610859
  N        16.7775962578       16.7973275288       18.9825075631
  N        16.7697630447        5.9773360997        8.1627648130
  N         5.9531721878        5.9841228168       18.9883882915
  N         5.9535921684       16.8026428175        8.1682494150
  N        16.7681844396        5.9774639819        3.7925145575
  N        16.7772559957       16.7969781587       14.6124235554
  N         5.9487229198        3.7983066712        5.9834425118
  N         5.9562222108       14.6179669304       16.8025575146
  N        16.7724867565       18.9827245356        5.9763780207
  N        16.7730876008        8.1626823027       16.7982831001
  N         5.9584384610       18.9879860624       16.8025551869
  N         5.9476241878        8.1685248693        5.9844761394
  N        16.7735080104        3.7923085855       16.7964299410
  N        16.7737198252       14.6124836613        5.9785334310
  N         3.7724202442       16.8038357011       16.8038337217
  N        14.5886244783       16.7969882278        5.9772887475
  N        18.9573979006       16.7979944473        5.9778046675
  N         8.1415357899       16.8014578459       16.8014577380
  N        18.9573966144        5.9777812809       16.7979743040
  N         8.1333178347        5.9827713520        5.9827717411
  N         3.7644161520        5.9835697643        5.9835674877
  N        14.5886244279        5.9773034495       16.7969751812
  N        16.7724802592        5.9763703314       18.9827204202
  N        16.7730896635       16.7982904883        8.1626883073
  N        16.7735071687       16.7964332746        3.7923078442
  N        16.7737244813        5.9785257098       14.6124824886
  N         5.9487278236        5.9834373984        3.7983080563
  N         5.9562203027       16.8025604100       14.6179672336
  N         5.9584536557       16.8025713513       18.9879820662
  N         5.9476118085        5.9844637838        8.1685249386
  C        11.3658522418       15.7420692521       15.7420692437
  H        11.3648808135       14.9665622603       14.9665628633
  C        11.3574798577        4.9233430644        4.9233470821
  H        11.3560883161        4.1478429398        4.1478489644
  C         0.5445622003       15.7430596688        4.9227141111
  H         0.5461410514       14.9676416601        4.1471163472
  C         0.5445655604        4.9227126142       15.7430598624
  H         0.5461421029        4.1471226622       14.9676483700
  C        11.3631386147        7.0365772263       15.7412867657
  H        11.3632700779        7.8119637816       14.9656801851
  C        11.3629578946       17.8564586659        4.9225491729
  H        11.3628754029       18.6322267449        4.1473221353
  C         0.5388947350        7.0388299388        4.9241578573
  H         0.5388820530        7.8144607037        4.1487786573
  C         0.5469480533       17.8579192810       15.7432295641
  H         0.5470685299       18.6335387928       14.9678339593
  C        11.3631370783       15.7412879178        7.0365772878
  H        11.3632695587       14.9656800118        7.8119652876
  C        11.3629580875        4.9225489063       17.8564570923
  H        11.3628747485        4.1473205613       18.6322263932
  C         0.5469469500       15.7432264339       17.8579190433
  H         0.5470685747       14.9678321339       18.6335349990
  C         0.5388946804        4.9241557119        7.0388260596
  H         0.5388815332        4.1487777539        7.8144514589
  C        11.3604697084        7.0379300626        7.0379282646
  H        11.3617613554        7.8134257514        7.8134218974
  C        11.3684126916       17.8567349667       17.8567319787
  H        11.3695662503       18.6322286984       18.6322245058
  C         0.5413937707        7.0377486378       17.8573192389
  H         0.5399180235        7.8133998528       18.6326791648
  C         0.5413924655       17.8573180373        7.0377523107
  H         0.5399173283       18.6326706103        7.8133974306
  C        15.7195417021       11.3880874327       15.7382500805
  H        14.9444960766       11.3885612320       14.9622785574
  C        15.7130816582        0.5671110804        4.9186539104
  H        14.9379691785        0.5665093170        4.1427649734
  C         4.8900885908       11.3935506180        4.9275643731
  H         4.1155496313       11.3939168159        4.1510473476
  C         4.9006205641        0.5720315337       15.7433825289
  H         4.1255080392        0.5712837717       14.9674256724
  C        15.7155688904       11.3881463476        7.0369691799
  H        14.9408244600       11.3886004472        7.8132414037
  C        15.7195417169        0.5669084449       17.8557814262
  H        14.9445327259        0.5663427595       18.6318083197
  C         4.8980452878       11.3933846270       17.8608443966
  H         4.1230987446       11.3937892768       18.6369427982
  C         4.8937872247        0.5725078399        7.0420044034
  H         4.1190411624        0.5717722683        7.8182976650
  C         7.0113962787       11.3924624413       15.7435585969
  H         7.7863636981       11.3920165036       14.9674742183
  C         7.0065459546        0.5738165675        4.9242286818
  H         7.7813692681        0.5745201180        4.1479985706
  C        17.8281705542       11.3872008614        4.9189604977
  H        18.6029158183       11.3867248083        4.1426402917
  C        17.8326623532        0.5680003848       15.7383499264
  H        18.6075027997        0.5685771395       14.9621433135
  C         7.0026582556       11.3927387979        7.0456749704
  H         7.7777284134       11.3923193796        7.8216403205
  C         7.0136324064        0.5734195959       17.8608871862
  H         7.7883762853        0.5741751357       18.6371636100
  C        17.8328623870       11.3871194890       17.8555246794
  H        18.6078644524       11.3866142188       18.6315926188
  C        17.8267109816        0.5682101912        7.0355909138
  H        18.6019040053        0.5687927889        7.8114757841
  C        15.7195413391       15.7382513096       11.3880890422
  H        14.9444961053       14.9622812617       11.3885635613
  C        15.7130761014        4.9186541554        0.5671126010
  H        14.9379649132        4.1427680244        0.5665099685
  C         4.9006168145       15.7433829827        0.5720289828
  H         4.1254964683       14.9674228965        0.5712841825
  C         4.8900908210        4.9275644657       11.3935500672
  H         4.1155584919        4.1510556574       11.3939145750
  C         7.0113981072       15.7435597361       11.3924630872
  H         7.7863649829       14.9674774015       11.3920168009
  C         7.0065484101        4.9242326102        0.5738168278
  H         7.7813703594        4.1480084340        0.5745205889
  C        17.8326637026       15.7383498643        0.5679970613
  H        18.6075032925       14.9621433659        0.5685770415
  C        17.8281710477        4.9189619564       11.3872011607
  H        18.6029135614        4.1426486714       11.3867240148
  C        15.7155656244        7.0369648833       11.3881464963
  H        14.9408165222        7.8132387582       11.3885999884
  C        15.7195446638       17.8557815412        0.5669083128
  H        14.9445353705       18.6318093249        0.5663423076
  C         4.8937834235        7.0420015776        0.5725086963
  H         4.1190307300        7.8182963446        0.5717746451
  C         4.8980458465       17.8608436196       11.3933848360
  H         4.1230987356       18.6369419490       11.3937908692
  C         7.0026598414        7.0456704716       11.3927367327
  H         7.7777357049        7.8216398820       11.3923179800
  C         7.0136383497       17.8608858528        0.5734188161
  H         7.7883825044       18.6371584989        0.5741727322
  C        17.8267109239        7.0355925472        0.5682108382
  H        18.6019100964        7.8114820984        0.5687930418
  C        17.8328614468       17.8555236826       11.3871192165
  H        18.6078631060       18.6315908683       11.3866175171
 Kr         2.6897007363       10.5609406433       10.5609401623
