     409
 i =     176, E =    -5136.7049447048
  N         2.9278702619        5.2007507213       15.9782632401
  C         1.6107834598        5.4767633120       16.2461672659
  N        13.7291093808        5.0959285695        5.0959454727
  C        12.4083558251        5.3631338076        5.3635501888
  N        19.6754834199       17.6003705685       16.0445532867
  C        20.9922995491       17.3158664980       16.3002092345
  N         8.7945466906       17.5504082375        5.1745756864
  C        10.1138958188       17.2719939284        5.4306387757
  N        19.5970060458        5.1984229953        6.7548651300
  C        20.9146847587        5.4707526174        6.4872094979
  N         8.7942558628        5.1742593732       17.5508516213
  C        10.1136220163        5.4301210514       17.2723244096
  N         2.9329400576       17.5319503152        6.7588757073
  C         1.6148569778       17.2627588146        6.4915011263
  N        13.8107866055       17.6389006950       17.6389263750
  C        12.4936681417       17.3629175705       17.3630171791
  N        15.9385885677        3.0032962161        5.1464702123
  C        16.2119771474        1.6901355293        5.4279789236
  N        15.9779281462       13.9070197039       16.0578483355
  C        16.2463460962       12.5861532774       16.3152280754
  N        15.9846179277       19.7688589935       17.6111918064
  C        16.2338176258       21.0848850738       17.3163606747
  N        15.8465438100        8.8533173612        6.7065731811
  C        16.1227622241       10.1764507687        6.4720273689
  N         6.6153475353       19.6888976895        5.1884092187
  C         6.3340747307       21.0047739250        5.4501126562
  N         6.6880489334        8.8929162570       16.0011265500
  C         6.4307464537       10.2140945087       16.2740559039
  N         6.6266933787        3.0414942494       17.5515299178
  C         6.3636498753        1.7226513020       17.2856646630
  N         6.6293506540       13.8233605860        6.7400535825
  C         6.3643974820       12.5053924652        6.4629238389
  N         5.0782483193       15.9891350403        3.0301545937
  C         5.3539030675       16.2642741460        1.7141116697
  N         5.0758557459        5.1819368646       13.8271106035
  C         5.3485611588        5.4469989401       12.5088244638
  N        17.5277001892       16.0428922005       19.7651976144
  C        17.2408235852       16.2920954278       21.0833388883
  N        17.4174862236        5.1711877847        8.8819249007
  C        17.1467094256        5.4678082862       10.1940584252
  N         5.0757790079        6.7598898510       19.6863940458
  C         5.3297461117        6.4771099192       21.0046106995
  N         5.1060321470       17.5302152539        8.9037468176
  C         5.3979725281       17.2722520627       10.2190572107
  N        17.4761910685        6.7199873909        3.0203184311
  C        17.2164884693        6.4544021101        1.7001368774
  N        17.5315683716       17.6146031711       13.8909953906
  C        17.2595558999       17.3325559989       12.5755450832
  N         5.0398038440        3.0047307505        6.7196000973
  C         5.3111734341        1.6855469504        6.4571416430
  N         5.1482223003       13.8561150296       17.5566891861
  C         5.4182717369       12.5395920958       17.2842689772
  N        17.4849160517       19.7057399918        6.7538425459
  C        17.2199012507       21.0210186258        6.4709908072
  N        17.4971149539        8.9323998268       17.5883371719
  C        17.2412972683       10.2525607825       17.3175337241
  N         5.1177226701       19.7123423753       16.0043501617
  C         5.3732523932       21.0327755341       16.2733880440
  N         5.0862701609        8.8714695307        5.1554700183
  C         5.3561044306       10.1871936556        5.4335260317
  N        17.4525207176        3.0822729589       15.9628026265
  C        17.2048338099        1.7638435870       16.2510618071
  N        17.4304251317       13.8338027940        5.2719817282
  C        17.1522056833       12.5143549251        5.5211317136
  N         2.9877412870       15.9953536622       17.5498784122
  C         1.6709029527       16.2757637075       17.2912224647
  N        13.7567765140       15.9901663886        6.7217596911
  C        12.4380316031       16.2434740284        6.4353634389
  N        19.6093380501       15.9708420096        5.2296354448
  C        20.9291360558       16.2425874185        5.4892359307
  N         8.8689334043       16.0482891977       16.0484530689
  C        10.1826574274       16.3294998516       16.3296854947
  N        19.6189502660        6.7709110863       17.5413331504
  C        20.9342779868        6.4973384941       17.2657960344
  N         8.7782891964        6.6670006530        6.6677396872
  C        10.0914935611        6.3879402479        6.3888128890
  N         2.9128991606        6.7464346148        5.1911984246
  C         1.5954444150        6.4827011597        5.4675418908
  N        13.7565410836        6.7212021043       15.9904731846
  C        12.4378003119        6.4346767285       16.2436829539
  N        15.9393728312        5.1887890764       19.6957285132
  C        16.2123531033        5.4476847324       21.0133165406
  N        15.9452980082       16.0286479933        8.9447611090
  C        16.2276936074       16.2988915103       10.2623290200
  N        15.9124928524       17.5326618893        3.0782552525
  C        16.1990657983       17.2760355505        1.7629183026
  N        15.8712302431        6.8277305400       13.8190573195
  C        16.1315653082        6.5345940131       12.5020035375
  N         6.5758005197        5.1457455738        2.9984681343
  C         6.3139538043        5.4290811482        1.6831019947
  N         6.7287088671       16.0258921942       13.8590102470
  C         6.4506781290       16.2851975501       12.5390338336
  N         6.6585042669       17.5744800092       19.7284043290
  C         6.3801160680       17.2977241210       21.0429363365
  N         6.6496436332        6.7026929708        8.8619084627
  C         6.3756225481        6.4452016820       10.1823476265
  N        19.6191369860       17.5412700659        6.7709007495
  C        20.9344764214       17.2657713598        6.4973443519
  N         8.8448678239       17.6040989364       17.6041371645
  C        10.1681639675       17.3452168095       17.3453115853
  N         2.9129728573        5.1908921926        6.7468931250
  C         1.5954772849        5.4671376306        6.4832421191
  N        13.7537646930        5.2035459192       17.5821956256
  C        12.4363801958        5.4467981627       17.2865057661
  N         2.9877491544       17.5498413687       15.9953611346
  C         1.6709061079       17.2912015584       16.2757696022
  N        13.7540179941       17.5817000673        5.2039266819
  C        12.4366340994       17.2861560912        5.4473379706
  N        19.6090813363        5.2298659132       15.9707083004
  C        20.9289138744        5.4893383630       16.2425050095
  N         8.7606280838        5.1119260039        5.1121228864
  C        10.0829395253        5.3725876184        5.3730746859
  N         6.6584841203       19.7283314924       17.5745107700
  C         6.3800596292       21.0428614941       17.2977845399
  N         6.6498840117        8.8616666041        6.7027502884
  C         6.3758618622       10.1821039017        6.4452417210
  N         6.5758889810        2.9983043269        5.1458367742
  C         6.3140939664        1.6829136393        5.4291287141
  N         6.7286666762       13.8589073799       16.0259918644
  C         6.4506098579       12.5389434748       16.2853168353
  N        15.9124012078        3.0782642998       17.5327835932
  C        16.1990266125        1.7629533668       17.2760681652
  N        15.8721542853       13.8187599439        6.8268739811
  C        16.1326250346       12.5017440861        6.5335723896
  N        15.9394373076       19.6956192348        5.1888751104
  C        16.2123605680       21.0132297151        5.4478278467
  N        15.9455152104        8.9447908294       16.0290830171
  C        16.2279781533       10.2623659654       16.2991514769
  N        17.4849414693        6.7536510173       19.7058220416
  C        17.2199786678        6.4707551212       21.0210867485
  N        17.4969852195       17.5878654119        8.9322865630
  C        17.2410715293       17.3172233098       10.2524553311
  N         5.0397134081        6.7194972844        3.0050003732
  C         5.3110431680        6.4571041090        1.6857955573
  N         5.1482873504       17.5566183280       13.8561573856
  C         5.4183642707       17.2841768178       12.5396402428
  N        17.4528215214       15.9629127705        3.0821248897
  C        17.2049875833       16.2511485285        1.7637405083
  N        17.4294447778        5.2727646935       13.8338789274
  C        17.1511027082        5.5220880934       12.5144774543
  N         5.1177186340       16.0043427500       19.7124197188
  C         5.3732918612       16.2733468911       21.0328496277
  N         5.0862586704        5.1551901745        8.8717278978
  C         5.3559886462        5.4333646975       10.1874461480
  N        17.5276616138       19.7652570353       16.0427984417
  C        17.2407793001       21.0834036526       16.2920289444
  N        17.4188513194        8.8817370485        5.1700235051
  C        17.1480087545       10.1938874879        5.4666203272
  N         5.0780530769        3.0300680188       15.9893375439
  C         5.3537637890        1.7140310227       16.2644101300
  N         5.0759855906       13.8268796217        5.1820585738
  C         5.3487119363       12.5085797734        5.4470890955
  N        17.4756478224        3.0203414586        6.7207033920
  C        17.2161942090        1.7001294299        6.4548941776
  N        17.5316158853       13.8911318154       17.6146503584
  C        17.2597285946       12.5756527692       17.3326487955
  N         5.0760339107       19.6861592694        6.7598745183
  C         5.3299721784       21.0043695849        6.4770856980
  N         5.1058527080        8.9037116339       17.5303859904
  C         5.3978334028       10.2190119383       17.2723976522
  N        19.5971004471        6.7539097092        5.1988364408
  C        20.9147116580        6.4863586307        5.4713133675
  N         8.7993035278        6.6831230904       15.9506718484
  C        10.1160195760        6.4137316757       16.2262458118
  N         2.9327341748        6.7588294373       17.5320676032
  C         1.6146548009        6.4914737867       17.2628321750
  N        13.7252175665        6.6502606396        6.6507766445
  C        12.4095297098        6.3786308498        6.3794056361
  N         2.9280701388       15.9781851706        5.2007645735
  C         1.6109843832       16.2461337534        5.4767499063
  N        13.8245733672       16.0833418301       16.0835808320
  C        12.5043868114       16.3470626523       16.3472860283
  N        19.6754868103       16.0445820982       17.6003743939
  C        20.9922995396       16.3002254108       17.3158659953
  N         8.7995150691       15.9504602966        6.6836923732
  C        10.1162507895       16.2260773438        6.4144361998
  N         6.6269627114       17.5512663835        3.0415897117
  C         6.3638267047       17.2854958574        1.7227383606
  N         6.6291304705        6.7400261016       13.8236199140
  C         6.3641777869        6.4629067614       12.5056406347
  N         6.6149964947        5.1883548529       19.6891147237
  C         6.3338015236        5.4500963748       21.0049849876
  N         6.6881108481       16.0008085837        8.8930272648
  C         6.4308202009       16.2738423476       10.2141832544
  N        15.9845801961       17.6111940793       19.7688312064
  C        16.2337977233       17.3163637733       21.0848553739
  N        15.8453471556        6.7078986397        8.8535782044
  C        16.1215696340        6.4733150324       10.1766846305
  N        15.9387572473        5.1461270471        3.0033224304
  C        16.2120733036        5.4276836711        1.6901683014
  N        15.9777633014       16.0579192337       13.9070525332
  C        16.2460832922       16.3152132863       12.5861424399
 Zn        14.6821762887       14.7936196302       14.7937010609
 Br        13.3158944451       13.5117043967       13.5105628067
 Zn        14.6487204797        3.8274364002        3.8275406849
 Br        13.3814013603        2.4901955923        2.4903759983
 Zn         3.7857590980       14.6979968284        3.8933438323
 Br         2.4611310541       13.3971297213        2.5742811533
 Zn         3.7856306712        3.8932710161       14.6981968407
 Br         2.4609268907        2.5742583099       13.3973157491
 Zn         7.9430319178        8.0057009247       14.6906708783
 Br         9.2286981185        9.3147131864       13.3494635902
 Zn         7.9179685395       18.8425959166        3.8982221065
 Br         9.2311418371       20.1653478205        2.5900257709
 Zn        18.7363407966        8.0340948871        3.8937723129
 Br        20.0547645781        9.3549615223        2.5910838059
 Zn        18.8240135816       18.9026749405       14.7565648127
 Br        20.1356889714       20.2200578693       13.4409720509
 Zn         7.9431368559       14.6900825458        8.0059344935
 Br         9.2289251301       13.3491324096        9.3151784425
 Zn         7.9174996754        3.8980749008       18.8430725822
 Br         9.2307705207        2.5898423910       20.1657037016
 Zn        18.8240467422       14.7566494019       18.9027333901
 Br        20.1356820803       13.4408871288       20.2199747049
 Zn        18.7349281802        3.8941209651        8.0354876688
 Br        20.0532923364        2.5917575455        9.3566643429
 Zn        14.5508317775        7.9482256597        7.9470012038
 Br        13.1796941907        9.2323072860        9.2220197933
 Zn        14.7001249357       18.9237103251       18.9236959952
 Br        13.3930342656       20.2413080849       20.2413781474
 Zn         3.7951456866        8.0585011273       18.8178845594
 Br         2.4876292191        9.3793003095       20.1318818125
 Zn         3.7953380695       18.8177565837        8.0585119740
 Br         2.4878092367       20.1317966056        9.3792651404
 Zn        14.6115201469       14.7711144784        8.0889060601
 Br        13.1536189537       13.8117757843        9.5416998388
 Zn        14.6262123954        3.9065484625       18.8504786142
 Br        13.3227285660        2.5814968529       20.1626764203
 Zn         3.8428475409       14.7055449988       18.8402281884
 Br         2.5254630846       13.3878964808       20.1494303749
 Zn         3.7726612999        3.8815655467        8.0215097906
 Br         2.4554568485        2.5769820328        9.3449939808
 Zn         7.9450042914        7.9677149176        7.9680137042
 Br         9.2560094992        9.2813400756        9.2820212844
 Zn         7.9484082767       18.8826600780       18.8826869181
 Br         9.2359422831       20.2107618250       20.2107776965
 Zn        18.7814163994        8.0522082877       18.8663756774
 Br        20.1126895638        9.3363655479       20.1933041695
 Zn        18.7813509277       18.8660548342        8.0522790658
 Br        20.1124770763       20.1930604445        9.3365511574
 Zn        14.6110393118        8.0894379084       14.7721192711
 Br        13.1512338773        9.5438231174       13.8181615193
 Zn        14.6262646915       18.8499465055        3.9067942450
 Br        13.3226342382       20.1622332994        2.5819288649
 Zn         3.7725131181        8.0212471264        3.8819661303
 Br         2.4555265872        9.3448755681        2.5773231406
 Zn         3.8428687061       18.8401535104       14.7055301654
 Br         2.5255211060       20.1493699843       13.3878624635
 Zn         8.0180669011       14.7521877745       14.7523343635
 Br         9.3190268103       13.4333496452       13.4335419475
 Zn         7.8606717553        3.8357460318        3.8357887053
 Br         9.1611724606        2.5137994072        2.5138438738
 Zn        18.7264493880       14.6691510733        3.9606609806
 Br        20.0289493265       13.3338352341        2.6549541491
 Zn        18.7258918738        3.9612288325       14.6689943802
 Br        20.0281658817        2.6556713446       13.3333446217
 Zn         5.8567632633        5.9632048125       16.7607940045
 Zn        16.7582432774       16.8386050303       16.8385603271
 Zn        16.6663184143        5.9252063004        5.9248801441
 Zn         5.8569921239       16.7605884859        5.9633056305
 Zn         5.8392933492        5.9344925527        5.9347712071
 Zn        16.6806433370       16.7759002033        6.0097086271
 Zn         5.9210353613       16.7866068424       16.7866617083
 Zn        16.6802694450        6.0097555222       16.7761728896
  N         3.6767664082        5.9774231222       16.7554453442
  N        14.4742054786        5.8750735707        5.8751218920
  N        18.9293728655       16.8298839890       16.8298739746
  N         8.0499047678       16.7521674337        5.9341282845
  N        18.8503766914        5.9739725703        5.9745968594
  N         8.0496561958        5.9337894134       16.7525416973
  N         3.6769702492       16.7553156144        5.9774551163
  N        14.5644374825       16.8636916476       16.8637980910
  N        16.7028521371        3.7578760325        5.9293671334
  N        16.7549396703       14.6461102033       16.8427608516
  N        16.7659659538       19.0206812190       16.8385594933
  N        16.6313836363        8.1204622075        5.9229981978
  N         5.8530084657       18.9408368581        5.9794083673
  N         5.8871113633        8.1518121500       16.7611447522
  N         5.8494628966        3.7824822682       16.7684944672
  N         5.8516493382       14.5716671989        5.9639927214
  N         5.8497217140       16.7682112618        3.7825685425
  N         5.8514966375        5.9639181330       14.5719059182
  N        16.7659623679       16.8386150222       19.0206357927
  N        16.6301184732        5.9242298505        8.1206286876
  N         5.8526796467        5.9793734327       18.9410581250
  N         5.8872373077       16.7608756713        8.1518840296
  N        16.7033075244        5.9287808046        3.7578628037
  N        16.7548871402       16.8427917669       14.6460529997
  N         5.8062066971        3.7485221112        5.9276508760
  N         5.9400397099       14.6038738752       16.7947189412
  N        16.7094598879       18.9537700127        5.9782731933
  N        16.7137816245        8.1926328187       16.8098350198
  N         5.8941912482       18.9735203031       16.7909157171
  N         5.8684464412        8.1199404808        5.9238824489
  N        16.6726489133        3.8272742177       16.7405842197
  N        16.6567220371       14.5733073000        6.0588495843
  N         3.7349912277       16.7673140039       16.7673332607
  N        14.5012630156       16.7981006787        5.9756524758
  N        18.8674714909       16.7570865106        6.0041852705
  N         8.1102830115       16.8202113611       16.8202896496
  N        18.8672488121        6.0043417874       16.7570595034
  N         8.0228711495        5.8941160290        5.8944554497
  N         3.6594010873        5.9649072009        5.9652645568
  N        14.5009994121        5.9752739455       16.7985918785
  N        16.7094062810        5.9781497721       18.9538650671
  N        16.7136699255       16.8092914785        8.1925620852
  N        16.6728995274       16.7405515741        3.8272095161
  N        16.6558429598        6.0595775170       14.5734875246
  N         5.8061424580        5.9275215746        3.7487437663
  N         5.9400719574       16.7946467640       14.6039424059
  N         5.8941836593       16.7909139674       18.9735926073
  N         5.8683540151        5.9236727092        8.1201907255
  C        11.3513897469       15.7893209255       15.7895894328
  H        11.3656215292       15.0139151316       15.0142320677
  C        11.2413597047        4.8179309799        4.8182193828
  H        11.2321250672        4.0425456185        4.0424895567
  C         0.4478969073       15.6924118683        4.9354473924
  H         0.4457127051       14.9140319455        4.1628985474
  C         0.4476826818        4.9355401661       15.6923583898
  H         0.4455337099        4.1630305711       14.9139383121
  C        11.2760399620        6.9509178778       15.6646740951
  H        11.2760099473        7.7067740493       14.8706637326
  C        11.2754427067       17.8423360049        4.9032278011
  H        11.2759467915       18.6412816091        4.1519269568
  C         0.4351298639        7.0353329628        4.9205071504
  H         0.4355589381        7.8100534914        4.1441572373
  C         0.5115914543       17.8532880634       15.7371050234
  H         0.5117465374       18.6287876269       14.9615240143
  C        11.2762765882       15.6646119835        6.9517820555
  H        11.2762514789       14.8706502830        7.7077105979
  C        11.2751697088        4.9027611515       17.8427331568
  H        11.2756234676        4.1515993452       18.6418059598
  C         0.5115782002       15.7371147439       17.8533035589
  H         0.5117281833       14.9615350028       18.6288073041
  C         0.4352347360        4.9201396206        7.0361236216
  H         0.4358540245        4.1439336426        7.8109793225
  C        11.2545711792        6.9322860519        6.9333978540
  H        11.2625424522        7.7075308713        7.7087329778
  C        11.3226516243       17.9033787500       17.9034279559
  H        11.3092534489       18.6788627533       18.6788369908
  C         0.4566692980        7.0414294560       17.8167168340
  H         0.4594989525        7.8128637798       18.5963386020
  C         0.4568701145       17.8166306850        7.0414874702
  H         0.4597164421       18.5962027189        7.8129736099
  C        15.6916960574       11.4325968979       15.7553267735
  H        14.9124353724       11.4438904383       14.9842204292
  C        15.6683307929        0.5267989877        4.8809450213
  H        14.9004995249        0.5196584126        4.0977440696
  C         4.8015387863       11.3495067958        4.8922272156
  H         4.0240068158       11.3510043310        4.1187887495
  C         4.8172279880        0.5469587067       15.7154458210
  H         4.0470624133        0.5371439782       14.9347147946
  C        15.5747251638       11.3274776186        7.0476440641
  H        14.7924899175       11.2995020732        7.8149103908
  C        15.6710614484        0.6051530243       17.8509236061
  H        14.9025547591        0.6081277081       18.6335449072
  C         4.8502159000       11.3813132839       17.8190564895
  H         4.0618110014       11.3845899351       18.5814756584
  C         4.7768117860        0.5254586134        7.0235529468
  H         4.0112663412        0.5259386931        7.8088965341
  C         7.0001878362       11.3744327640       15.7405924099
  H         7.7869649635       11.3718161557       14.9765633826
  C         6.8665220868        0.5234731831        4.8820685223
  H         7.6326810182        0.5229870711        4.0972935349
  C        17.7028876608       11.3654354159        4.9487103830
  H        18.4832253556       11.3848653959        4.1780365713
  C        17.7674191018        0.6024352606       15.7161336468
  H        18.5362619075        0.5999277446       14.9341218029
  C         6.9203776112       11.3421512693        7.0027962285
  H         7.6969104282       11.3408193846        7.7772659185
  C         6.9170839134        0.5692855230       17.8462084100
  H         7.6865902579        0.5794700139       18.6276698729
  C        17.7996064802       11.4064698803       17.8747899444
  H        18.5717116457       11.3946750310       18.6536097955
  C        17.7642454636        0.5453106327        7.0177109223
  H        18.5326484300        0.5520196201        7.8003079752
  C        15.6913409766       15.7552597335       11.4326222479
  H        14.9120743413       14.9841487190       11.4440337146
  C        15.6682770525        4.8807974968        0.5268482227
  H        14.9003598844        4.0976850596        0.5196967830
  C         4.8172990780       15.7153782790        0.5470425996
  H         4.0471174824       14.9346662356        0.5372212541
  C         4.8014409386        4.8920647382       11.3497527922
  H         4.0239621372        4.1185704115       11.3512684197
  C         7.0002393860       15.7404131090       11.3745491468
  H         7.7869924228       14.9763578684       11.3719572082
  C         6.8663103489        4.8820248402        0.5236360349
  H         7.6324515515        4.0972309256        0.5230804512
  C        17.7675607795       15.7162381448        0.6023301886
  H        18.5364528309       14.9342708032        0.5998178838
  C        17.7016503605        4.9497570060       11.3654962523
  H        18.4819484460        4.1790283808       11.3847184281
  C        15.5736397029        7.0488640532       11.3277965842
  H        14.7915764909        7.8162944599       11.3000167707
  C        15.6710154532       17.8508657432        0.6051404022
  H        14.9024498347       18.6334305382        0.6081488088
  C         4.7766566486        7.0235707913        0.5257325049
  H         4.0111398047        7.8089421780        0.5262672950
  C         4.8503560364       17.8189657241       11.3813396217
  H         4.0619772494       18.5814131939       11.3845879335
  C         6.9200906797        7.0028258021       11.3423938045
  H         7.6965641514        7.7773499216       11.3410187536
  C         6.9172024769       17.8460866576        0.5693607326
  H         7.6867210680       18.6275366047        0.5795478970
  C        17.7644992413        7.0173089987        0.5453577928
  H        18.5329859294        7.7998236697        0.5520853545
  C        17.7994244643       17.8745635044       11.4063039755
  H        18.5715849704       18.6533282756       11.3943968026
 Kr        11.4429966355       11.3577459114       11.3601255998
