     409
 i =     176, E =    -5136.7057341336
  N         2.9556889893        5.2305483709       15.9759299986
  C         1.6354472777        5.4895651063       16.2453837377
  N        13.7887756589        5.1114982736        5.1116448097
  C        12.4676463089        5.3748934079        5.3751437380
  N        19.5877956920       17.5446548880       15.9897624319
  C        20.9048055650       17.2884533959       16.2729450405
  N         8.8102709852       17.5873522739        5.2104786730
  C        10.1274257046       17.2892232592        5.4522585092
  N        19.6403649143        5.1822162234        6.7381647219
  C        20.9576678137        5.4624620591        6.4783440697
  N         8.8102917753        5.2102934355       17.5875233381
  C        10.1274475832        5.4520202493       17.2893503258
  N         2.9428780090       17.5442257990        6.7737923314
  C         1.6279527819       17.2676975153        6.4984881987
  N        13.7348442886       17.6001945563       17.6002487590
  C        12.4114437812       17.3420985163       17.3421593083
  N        15.9710730191        2.9922774394        5.1403040593
  C        16.2359383621        1.6770408386        5.4228368714
  N        15.8450824383       13.8541322699       16.0191248726
  C        16.1217828448       12.5341064971       16.2789209163
  N        15.9180741835       19.7236612014       17.5692513418
  C        16.1934983414       21.0383219120       17.2906264185
  N        15.9091967251        8.8560812219        6.6976585023
  C        16.1838924744       10.1763667955        6.4404416080
  N         6.6236576488       19.7050205896        5.1971234507
  C         6.3471540175       21.0219449627        5.4557432985
  N         6.6219022668        8.9481105012       16.0336966191
  C         6.3418670491       10.2658502245       16.3045967377
  N         6.6548273668        3.0838172911       17.5444379963
  C         6.3714039839        1.7677471704       17.2871989205
  N         6.6882767318       13.8259522829        6.8266145464
  C         6.4261045550       12.5090679134        6.5349963309
  N         5.1137776424       15.9747889308        3.0842577227
  C         5.3648614131       16.2629759027        1.7665289536
  N         5.1318833402        5.2706946986       13.8411675077
  C         5.4076985918        5.5223272541       12.5218033595
  N        17.4573218835       15.9979516904       19.7088450949
  C        17.1995933704       16.2655327691       21.0292521841
  N        17.4711759875        5.1488210772        8.8653285792
  C        17.2029833969        5.4278746837       10.1811390682
  N         5.0758952393        6.7595958568       19.7111462157
  C         5.3383835209        6.4776209976       21.0272284138
  N         5.0689368818       17.5914818913        8.9371542987
  C         5.3280415099       17.3222516027       10.2572501566
  N        17.5099324286        6.7120725610        3.0005416452
  C        17.2401965505        6.4496557422        1.6813239001
  N        17.4250220970       17.5500856350       13.8502896337
  C        17.1537763947       17.2780902906       12.5339345472
  N         5.0760755032        3.0267631256        6.7293717549
  C         5.3375351197        1.7068257497        6.4628637337
  N         5.0447717772       13.8968134944       17.6199146154
  C         5.3146230355       12.5807981329       17.3379408264
  N        17.4850080103       19.6827228808        6.7528467284
  C        17.2275351528       21.0002683696        6.4700871060
  N        17.4592409137        8.8979399166       17.5272187375
  C        17.1701800381       10.2134593825       17.2677942905
  N         5.0520545219       19.7676967091       16.0507092497
  C         5.3356291961       21.0860764906       16.3018881822
  N         5.1343793947        8.8892419788        5.1770545823
  C         5.4076049923       10.2013872332        5.4716784080
  N        17.4871711787        3.0271591432       15.9792113741
  C        17.2139916130        1.7106880902       16.2549506987
  N        17.4876121667       13.8201724276        5.1800954011
  C        17.2129978137       12.5021202930        5.4437184373
  N         2.9011609325       16.0501322036       17.6057355844
  C         1.5841192398       16.3028330698       17.3184127736
  N        13.7641357384       15.9465195475        6.6835424746
  C        12.4473515389       16.2247598034        6.4167394704
  N        19.6368719692       15.9737222741        5.1978828459
  C        20.9534758597       16.2442529882        5.4746112743
  N         8.7538498844       16.0826339434       16.0827082100
  C        10.0742933307       16.3453593592       16.3454440126
  N        19.6289099923        6.7544929957       17.5295793843
  C        20.9475087080        6.4887745409       17.2616097625
  N         8.8298883235        6.6586887855        6.6588671486
  C        10.1449083906        6.3854218097        6.3857508726
  N         2.9558873745        6.7607642729        5.2050497153
  C         1.6382760055        6.4891144916        5.4736408239
  N        13.7641600044        6.6833023761       15.9466321548
  C        12.4473784854        6.4164446759       16.2248384571
  N        15.9456967900        5.1816238114       19.6821414541
  C        16.2231416128        5.4434469222       20.9987395522
  N        15.8788838003       15.9959638064        8.8887468362
  C        16.1381520011       16.2684384591       10.2095629316
  N        15.9384929659       17.5415322555        3.0366128807
  C        16.2042787905       17.2763560825        1.7181223402
  N        15.9338024934        6.7371753790       13.8177275952
  C        16.1973008371        6.4593057309       12.4996375926
  N         6.6133990535        5.1554748215        3.0126022152
  C         6.3421086603        5.4363668250        1.6989025033
  N         6.5983917913       16.0627153911       13.9100217922
  C         6.3282152863       16.3205471105       12.5895749780
  N         6.5985354488       17.6164940497       19.7728778557
  C         6.3443309463       17.3246630290       21.0888939708
  N         6.7079919669        6.7140336493        8.8606875224
  C         6.4335103832        6.4776997530       10.1839474828
  N        19.6288619416       17.5294537935        6.7545395713
  C        20.9474620936       17.2615328201        6.4887944473
  N         8.7702167528       17.6382339467       17.6382118102
  C        10.0866265907       17.3611663485       17.3611951259
  N         2.9559790296        5.2049212030        6.7610735202
  C         1.6383193852        5.4734161390        6.4894377889
  N        13.7694955415        5.1710694541       17.5436159443
  C        12.4500928335        5.4307515006       17.2690293824
  N         2.9011489365       17.6057381020       16.0501029466
  C         1.5841103217       17.3184121202       16.3028226594
  N        13.7694595153       17.5434172598        5.1712015488
  C        12.4500628810       17.2688870800        5.4309712770
  N        19.6369029116        5.1978588872       15.9738374417
  C        20.9535126978        5.4746125291       16.2443111481
  N         8.8215547983        5.1044589227        5.1044273788
  C        10.1428097406        5.3698673194        5.3700427175
  N         6.5984926662       19.7729207081       17.6164425503
  C         6.3442670733       21.0889326838       17.3246072529
  N         6.7074898586        8.8606466915        6.7133827539
  C         6.4329819287       10.1839142310        6.4771073218
  N         6.6135195175        3.0126089770        5.1555133677
  C         6.3422027534        1.6989112192        5.4364088446
  N         6.5983205812       13.9100380270       16.0626541531
  C         6.3280889398       12.5896093876       16.3205169664
  N        15.9385154813        3.0365426015       17.5416751384
  C        16.2042771189        1.7180551667       17.2764649263
  N        15.9337360540       13.8175703059        6.7372255949
  C        16.1972225760       12.4994825954        6.4593636981
  N        15.9456259842       19.6819891167        5.1816902898
  C        16.2230793063       20.9985874297        5.4435098185
  N        15.8788762429        8.8886604029       15.9961635461
  C        16.1381561239       10.2094834178       16.2685871785
  N        17.4850523623        6.7528055234       19.6828816354
  C        17.2275814707        6.4700390102       21.0004303781
  N        17.4592065410       17.5270787513        8.8979986875
  C        17.1701503030       17.2676730559       10.2135229223
  N         5.0757713495        6.7291811592        3.0267219026
  C         5.3373527566        6.4627383666        1.7067983291
  N         5.0447861045       17.6199199456       13.8967180255
  C         5.3147084109       17.3379354887       12.5807172109
  N        17.4871464503       15.9790525952        3.0272143934
  C        17.2139901454       16.2548370572        1.7107453898
  N        17.4876355245        5.1800024131       13.8203460291
  C        17.2130445610        5.4436257177       12.5022898299
  N         5.0520696217       16.0507934223       19.7676722660
  C         5.3356668930       16.3019702492       21.0860431866
  N         5.1350002896        5.1776101449        8.8892235441
  C         5.4081942490        5.4722149082       10.2013750476
  N        17.4573042191       19.7087962095       15.9980013221
  C        17.1995764878       21.0291998269       16.2655957302
  N        17.4711403318        8.8651548641        5.1490390058
  C        17.2029185292       10.1809732646        5.4280210329
  N         5.1137886594        3.0843194018       15.9746420723
  C         5.3648232851        1.7665767253       16.2628560408
  N         5.1315165103       13.8412238796        5.2703166348
  C         5.4072324227       12.5218306117        5.5218860054
  N        17.5098948933        3.0003509683        6.7121692724
  C        17.2401514197        1.6811482249        6.4497239549
  N        17.4250567216       13.8502263588       17.5501483996
  C        17.1538102654       12.5338676229       17.2781741921
  N         5.0759591343       19.7111511429        6.7596574821
  C         5.3384583112       21.0272401945        6.4776895692
  N         5.0688345339        8.9372413206       17.5916516528
  C         5.3279096902       10.2573295954       17.3223459816
  N        19.6403596682        6.7379019361        5.1824444335
  C        20.9576555940        6.4780725817        5.4626921576
  N         8.8068109300        6.7287365485       15.9961010656
  C        10.1255581793        6.4408102071       16.2473324108
  N         2.9429161053        6.7738232921       17.5442077348
  C         1.6279976449        6.4984966391       17.2676870889
  N        13.7772994351        6.6664766675        6.6668605669
  C        12.4629183319        6.3903479244        6.3907672700
  N         2.9556407042       15.9760639939        5.2304205754
  C         1.6354045818       16.2454487661        5.4895012836
  N        13.7087793610       16.0444876569       16.0445992849
  C        12.3955654406       16.3264341811       16.3265361203
  N        19.5878097553       15.9897262787       17.5446890625
  C        20.9048149031       16.2729224504       17.2884761150
  N         8.8067760376       15.9959968444        6.7289657045
  C        10.1255304953       16.2472538465        6.4411001831
  N         6.6549086394       17.5444717930        3.0837981095
  C         6.3714971238       17.2872649503        1.7677128723
  N         6.6886414728        6.8270278409       13.8260176330
  C         6.4265533362        6.5354618427       12.5091169659
  N         6.6236203604        5.1970688113       19.7050330614
  C         6.3471043721        5.4557028866       21.0219474689
  N         6.6220304662       16.0335491368        8.9480678075
  C         6.3420235482       16.3045224493       10.2658052945
  N        15.9180865427       17.5691998461       19.7237240150
  C        16.1935139763       17.2905629570       21.0383840307
  N        15.9093279381        6.6975548682        8.8562281967
  C        16.1840138094        6.4403530612       10.1765160331
  N        15.9711197515        5.1402012238        2.9924220441
  C        16.2359915333        5.4227597857        1.6771929747
  N        15.8450625199       16.0190384797       13.8542204354
  C        16.1217623762       16.2788217733       12.5341899218
 Zn        14.5532108792       14.7467515615       14.7468894007
 Br        13.2485655001       13.4308205547       13.4309365416
 Zn        14.6798612625        3.8335920946        3.8336547289
 Br        13.3800422000        2.5117199306        2.5117961702
 Zn         3.8379270056       14.6784584399        3.9580777911
 Br         2.5361240736       13.3441003670        2.6509398664
 Zn         3.8380972725        3.9583544458       14.6782548707
 Br         2.5363790189        2.6512943226       13.3437686032
 Zn         7.9502823324        8.0917956902       14.7724150391
 Br         9.3979213238        9.5323286932       13.7799056056
 Zn         7.9399549658       18.8642527414        3.9181674719
 Br         9.2447105204       20.1732707612        2.5914618484
 Zn        18.7812006276        8.0135227689        3.8726326694
 Br        20.0984622062        9.3356886817        2.5673525581
 Zn        18.7285533080       18.8346383576       14.6992765391
 Br        20.0476903405       20.1421051012       13.3809634502
 Zn         7.9501082723       14.7720024080        8.0915468654
 Br         9.3968949213       13.7772235124        9.5313828659
 Zn         7.9398628515        3.9179766044       18.8643524785
 Br         9.2445487625        2.5912495753       20.1733977573
 Zn        18.7285814937       14.6992365203       18.8346781504
 Br        20.0477283362       13.3809288062       20.1421422088
 Zn        18.7811738757        3.8722741581        8.0136564981
 Br        20.0985360297        2.5670974861        9.3358101744
 Zn        14.6154776875        7.9647809160        7.9649649918
 Br        13.3039632692        9.2780508221        9.2784474444
 Zn        14.6310731290       18.8796786345       18.8797265023
 Br        13.3430986973       20.2072978365       20.2073591048
 Zn         3.7805068282        8.0563967740       18.8672150842
 Br         2.4500747792        9.3435287221       20.1924529967
 Zn         3.7805639489       18.8671183953        8.0564045920
 Br         2.4502097676       20.1924043714        9.3435791888
 Zn        14.6220804384       14.6847383789        8.0040282444
 Br        13.3359034480       13.3475375974        9.3151598284
 Zn        14.6461712283        3.8927945727       18.8332850860
 Br        13.3334001114        2.5820906058       20.1544004265
 Zn         3.7525673386       14.7636242517       18.9095400162
 Br         2.4411231858       13.4479868593       20.2267414333
 Zn         3.8143419422        3.8994449261        8.0452782917
 Br         2.4967054397        2.5970555055        9.3661058902
 Zn         8.0047676526        7.9550995064        7.9545279886
 Br         9.3667908083        9.2419489758        9.2376938786
 Zn         7.8900074271       18.9251107162       18.9250566755
 Br         9.1968262350       20.2424297859       20.2423977848
 Zn        18.7662978646        8.0532186672       18.8171970499
 Br        20.0740916736        9.3714360317       20.1331652613
 Zn        18.7662611101       18.8170672938        8.0532610744
 Br        20.0740641845       20.1330510456        9.3714572527
 Zn        14.6221086657        8.0039122783       14.6850293557
 Br        13.3360008413        9.3149534388       13.3477034834
 Zn        14.6461053389       18.8331177917        3.8928677494
 Br        13.3333448770       20.1542438474        2.5821732419
 Zn         3.8135231950        8.0449159486        3.8992784657
 Br         2.4959373226        9.3655359690        2.5966624197
 Zn         3.7525472169       18.9095096767       14.7635641502
 Br         2.4411047200       20.2267752929       13.4479812868
 Zn         7.8922513708       14.7935318789       14.7935266745
 Br         9.2502650669       13.5065586054       13.5060774880
 Zn         7.9031698691        3.8356590480        3.8356189627
 Br         9.1718990103        2.4992600107        2.4992711016
 Zn        18.7788987032       14.6878534939        3.8929126069
 Br        20.1054501170       13.3883990009        2.5744898966
 Zn        18.7789272085        3.8928571930       14.6880723821
 Br        20.1054805478        2.5744443332       13.3885848481
 Zn         5.8839400763        6.0120787864       16.7808962277
 Zn        16.6572748209       16.7814276407       16.7814774604
 Zn        16.7158588633        5.9245033723        5.9248109245
 Zn         5.8838887238       16.7808018791        6.0120397310
 Zn         5.8868680933        5.9376252645        5.9374406254
 Zn        16.7071520565       16.7542621181        5.9593127476
 Zn         5.8290985285       16.8434936032       16.8434355744
 Zn        16.7071777913        5.9592560881       16.7544634318
  N         3.6961709963        6.0066017852       16.7619094119
  N        14.5298065164        5.8921958728        5.8924175858
  N        18.8408358829       16.7605436994       16.7605855071
  N         8.0627142162       16.8049266857        5.9831761627
  N        18.8939243440        5.9542529684        5.9545059708
  N         8.0627433322        5.9830060771       16.8050915232
  N         3.6961244362       16.7619921734        6.0064944949
  N        14.4684482450       16.8159158685       16.8159983974
  N        16.7411906866        3.7430291132        5.9214330168
  N        16.6341079421       14.5985625453       16.7879134900
  N        16.6829716977       18.9692842941       16.7860228441
  N        16.6891202924        8.1138005224        5.9178031325
  N         5.8541403580       18.9609890871        5.9851438201
  N         5.8513487834        8.1965974526       16.8130652013
  N         5.8924826038        3.8309626777       16.7523887988
  N         5.9056871603       14.5806221121        6.0569908929
  N         5.8924941723       16.7524689392        3.8309193639
  N         5.9060050173        6.0573509849       14.5806343845
  N        16.6829852802       16.7859774702       18.9693408135
  N        16.6891894655        5.9176194708        8.1139680206
  N         5.8540970606        5.9850784866       18.9609894215
  N         5.8514428117       16.8128630762        8.1965389734
  N        16.7412296440        5.9213180167        3.7432009146
  N        16.6340825910       16.7878475115       14.5986357364
  N         5.8480700834        3.7659495296        5.9385944307
  N         5.8223876867       14.6504665443       16.8476357105
  N        16.7098597449       18.9355727620        5.9723528468
  N        16.6776310256        8.1467525758       16.7576368473
  N         5.8175946346       19.0240028820       16.8436922077
  N         5.9212925958        8.1281990434        5.9309388359
  N        16.7144544519        3.7784819202       16.7581910255
  N        16.7126362553       14.5655036428        5.9621144783
  N         3.6477729675       16.8368999783       16.8368795356
  N        14.5139288998       16.7450314701        5.9307166822
  N        18.8865119493       16.7509421047        5.9733697957
  N         8.0154863815       16.8636122802       16.8636183345
  N        18.8865520977        5.9733199655       16.7510891420
  N         8.0785956477        5.8845172337        5.8844806934
  N         3.7025573223        5.9827471565        5.9829347010
  N        14.5139581732        5.9305681039       16.7452202585
  N        16.7099191098        5.9722996515       18.9357308117
  N        16.6776192901       16.7574509576        8.1468242464
  N        16.7144180681       16.7580197030        3.7785444138
  N        16.7126721279        5.9620431767       14.5656649791
  N         5.8478249910        5.9384550277        3.7659149588
  N         5.8224014459       16.8476721386       14.6504090389
  N         5.8176104727       16.8437595194       19.0239661031
  N         5.9218425617        5.9315396855        8.1281981358
  C        11.2263709909       15.7867982314       15.7869199035
  H        11.2113493027       15.0114074966       15.0115507510
  C        11.3074724908        4.8223470358        4.8224892229
  H        11.3133737442        4.0468448843        4.0468340180
  C         0.4782516097       15.6930300258        4.9344795655
  H         0.4832188000       14.9147414890        4.1618442025
  C         0.4782812648        4.9345294755       15.6930112515
  H         0.4832167710        4.1619136207       14.9147024521
  C        11.2868590951        6.9566013291       15.6668799219
  H        11.2861791395        7.7132595668       14.8735492925
  C        11.2889861499       17.8417021616        4.9052476068
  H        11.2891825435       18.6395652431        4.1527803322
  C         0.4779019280        7.0344512170        4.9193081566
  H         0.4773953038        7.8092732970        4.1430667248
  C         0.4245296360       17.8529566094       15.7371820684
  H         0.4243112992       18.6284344683       14.9616058791
  C        11.2868308781       15.6668500915        6.9569612457
  H        11.2861403348       14.8735382658        7.7136436450
  C        11.2890161171        4.9050402477       17.8418617443
  H        11.2892266957        4.1526318122       18.6397754985
  C         0.4245500582       15.7371767674       17.8529700165
  H         0.4243520560       14.9616010267       18.6284477003
  C         0.4779101646        4.9191184893        7.0347852410
  H         0.4773784540        4.1429375607        7.8096522234
  C        11.3018740284        6.9371405151        6.9376428634
  H        11.2972125368        7.7124410565        7.7129896202
  C        11.2579622200       17.9010619534       17.9010847137
  H        11.2722576688       18.6765310233       18.6765199148
  C         0.4639845369        7.0407233305       17.8169430265
  H         0.4586196258        7.8122917627       18.5964243302
  C         0.4639294754       17.8168889260        7.0407483614
  H         0.4585461964       18.5963452079        7.8123445002
  C        15.5708014405       11.3703107015       15.7342620127
  H        14.7842558688       11.3684381767       14.9700281618
  C        15.6865822843        0.5159376483        4.8761274812
  H        14.9198820359        0.5129525401        4.0918908315
  C         4.8546593521       11.3728002137        4.9515526908
  H         4.0743658292       11.3920683345        4.1808551931
  C         4.8047785383        0.6040716251       15.7278681837
  H         4.0350537850        0.5998352539       14.9466554794
  C        15.6403238548       11.3365179153        6.9987126670
  H        14.8639497849       11.3354926530        7.7733442865
  C        15.6538550019        0.5639031976       17.8381642473
  H        14.8846489999        0.5726394635       18.6199161500
  C         4.7722041297       11.4124969457       17.8797552865
  H         3.9998165274       11.4023632960       18.6582915209
  C         4.7913577895        0.5503606751        7.0244217990
  H         4.0224686464        0.5546737730        7.8065034799
  C         6.8808358533       11.4349153784       15.7609983713
  H         7.6596669770       11.4445629189       14.9893433349
  C         6.8887472833        0.5368842771        4.8894128323
  H         7.6570388633        0.5318601417        4.1066207730
  C        17.7585959574       11.3430222553        4.8874501922
  H        18.5357998452       11.3444830630        4.1136749163
  C        17.7527979128        0.5442343516       15.7065196785
  H        18.5228319326        0.5355661914       14.9256279868
  C         6.9823194877       11.3349966872        7.0513170815
  H         7.7639389266       11.3079037047        7.8193432578
  C         6.9035156116        0.6106289793       17.8600379523
  H         7.6728273306        0.6153671963       18.6417699063
  C        17.7198433667       11.3750708273       17.8138908503
  H        18.5080276766       11.3774531309       18.5765746200
  C        17.7779466546        0.5226407668        7.0160078698
  H        18.5441290097        0.5254552888        7.8007498208
  C        15.5707993870       15.7341330364       11.3704003498
  H        14.7842651193       14.9698886339       11.3685352966
  C        15.6866460003        4.8760528502        0.5160826951
  H        14.9199550995        4.0918079422        0.5130849693
  C         4.8047982361       15.7279797667        0.6040352897
  H         4.0350529022       14.9467886606        0.5998257589
  C         4.8552013472        4.9520239185       11.3727361108
  H         4.0749167089        4.1813203800       11.3919047458
  C         6.8810145162       15.7610067699       11.4349044598
  H         7.6598468874       14.9893512081       11.4446095556
  C         6.8887165317        4.8894010258        0.5368847595
  H         7.6570409669        4.1066460597        0.5318716721
  C        17.7528076090       15.7064372514        0.5442811581
  H        18.5228428643       14.9255467154        0.5356005548
  C        17.7586325885        4.8873142441       11.3432063143
  H        18.5358081183        4.1135135839       11.3446881089
  C        15.6404506455        6.9986643135       11.3366528664
  H        14.8641012392        7.7733214659       11.3355945143
  C        15.6538710723       17.8380811970        0.5639751085
  H        14.8846664587       18.6198355886        0.5727210385
  C         4.7912108452        7.0243056131        0.5503341450
  H         4.0222866702        7.8063578100        0.5546336629
  C         4.7723081780       17.8796949754       11.4123846785
  H         3.9998958864       18.6582093431       11.4021979288
  C         6.9827908606        7.0518743834       11.3350692819
  H         7.7643288360        7.8199812186       11.3080720348
  C         6.9036181706       17.8600740109        0.6105866699
  H         7.6729588817       18.6417798661        0.6153081192
  C        17.7779812315        7.0159566817        0.5228149739
  H        18.5441513762        7.8007101338        0.5256313252
  C        17.7198002520       17.8137988686       11.3751279988
  H        18.5079747014       18.5764945948       11.3775028132
 Kr        11.1546614151       11.3590437571       11.3599872303
