 DBCSR| CPU Multiplication driver                                           XSMM (U)
 DBCSR| Multrec recursion limit                                              512 (U)
 DBCSR| Multiplication stack size                                           1000 (D)
 DBCSR| Maximum elements for images                                    UNLIMITED (U)
 DBCSR| Multiplicative factor virtual images                                   1 (U)
 DBCSR| Use multiplication densification                                       T (D)
 DBCSR| Multiplication size stacks                                             3 (U)
 DBCSR| Use memory pool for CPU allocation                                     F (U)
 DBCSR| Number of 3D layers                                               SINGLE (U)
 DBCSR| Use MPI memory allocation                                              F (U)
 DBCSR| Use RMA algorithm                                                      F (U)
 DBCSR| Use Communication thread                                               T (U)
 DBCSR| Communication thread load                                             87 (D)
 DBCSR| MPI: My process id                                                     0
 DBCSR| MPI: Number of processes                                              72
 DBCSR| OMP: Current number of threads                                         1
 DBCSR| OMP: Max number of threads                                             1
 DBCSR| Split modifier for TAS multiplication algorithm                  1.0E+00 (U)


  **** **** ******  **  PROGRAM STARTED AT               2024-09-13 00:14:51.015
 ***** ** ***  *** **   PROGRAM STARTED ON                              nid02963
 **    ****   ******    PROGRAM STARTED BY                              bsertcan
 ***** **    ** ** **   PROGRAM PROCESS ID                                  2698
  **** **  *******  **  PROGRAM STARTED IN /scratch/snx3000/bsertcan/MFU_sp/cl/x
                                           e/rep29

 CP2K| version string:                 CP2K version 2024.2 (Development Version)
 CP2K| source code revision number:                                  git:42d1e6b
 CP2K| cp2kflags: omp libint fftw3 libxc parallel scalapack xsmm                
 CP2K| is freely available from                            https://www.cp2k.org/
 CP2K| Program compiled at                         Tue Sep  3 22:59:39 CEST 2024
 CP2K| Program compiled on                                              daint106
 CP2K| Program compiled for                                                local
 CP2K| Data directory path                             /users/bsertcan/cp2k/data
 CP2K| Input file name                                                 input.inp

 GLOBAL| Force Environment number                                              1
 GLOBAL| Basis set file name                                    BASIS_MOLOPT_UZH
 GLOBAL| Potential file name                                       POTENTIAL_UZH
 GLOBAL| MM Potential file name                                     MM_POTENTIAL
 GLOBAL| Coordinate file name                                         rep_29.xyz
 GLOBAL| Method name                                                        CP2K
 GLOBAL| Project name                                                 Replica_29
 GLOBAL| Run type                                                         ENERGY
 GLOBAL| FFT library                                                       FFTW3
 GLOBAL| Diagonalization library                                       ScaLAPACK
 GLOBAL| DGEMM library                                                      BLAS
 GLOBAL| Orthonormality check for eigenvectors                          DISABLED
 GLOBAL| Matrix multiplication library                                 ScaLAPACK
 GLOBAL| All-to-all communication in single precision                          F
 GLOBAL| FFTs using library dependent lengths                                  F
 GLOBAL| Grid backend                                                       AUTO
 GLOBAL| Global print level                                                  LOW
 GLOBAL| MPI I/O enabled                                                       T
 GLOBAL| Total number of message passing processes                            72
 GLOBAL| Number of threads for this process                                    1
 GLOBAL| This output is from process                                           0
 GLOBAL| Stack size for threads created by OpenMP (OMP_STACKSIZE)             5M
 GLOBAL| CPU model name                Intel(R) Xeon(R) CPU E5-2690 v3 @ 2.60GHz
 GLOBAL| CPUID                                                              1002

 MEMORY| system memory details [Kb]
 MEMORY|                        rank 0           min           max       average
 MEMORY| MemTotal             65740148      65740148      65740148      65740148
 MEMORY| MemFree              61098336      60891420      61098336      60944690
 MEMORY| Buffers                  7956          7956          9400          8947
 MEMORY| Cached                1699268       1699268       1880516       1832868
 MEMORY| Slab                   218728        217208        219360        218540
 MEMORY| SReclaimable            51640         50836         51784         51496
 MEMORY| MemLikelyFree        62857200      62813084      62857200      62838003


 *******************************************************************************
 *******************************************************************************
 **                                                                           **
 **     #####                         ##              ##                      **
 **    ##   ##            ##          ##              ##                      **
 **   ##     ##                       ##            ######                    **
 **   ##     ##  ##   ##  ##   #####  ##  ##   ####   ##    #####    #####    **
 **   ##     ##  ##   ##  ##  ##      ## ##   ##      ##   ##   ##  ##   ##   **
 **   ##  ## ##  ##   ##  ##  ##      ####     ###    ##   ######   ######    **
 **    ##  ###   ##   ##  ##  ##      ## ##      ##   ##   ##       ##        **
 **     #######   #####   ##   #####  ##  ##  ####    ##    #####   ##        **
 **           ##                                                    ##        **
 **                                                                           **
 **                                                ... make the atoms dance   **
 **                                                                           **
 **            Copyright (C) by CP2K developers group (2000-2024)             **
 **                      J. Chem. Phys. 152, 194103 (2020)                    **
 **                                                                           **
 *******************************************************************************


 TOTAL NUMBERS AND MAXIMUM NUMBERS

  Total number of            - Atomic kinds:                                   6
                             - Atoms:                                        409
                             - Shell sets:                                   409
                             - Shells:                                      3617
                             - Primitive Cartesian functions:               2053
                             - Cartesian basis functions:                  13634
                             - Spherical basis functions:                  11621

  Maximum angular momentum of- Orbital basis functions:                        3
                             - Local part of the GTH pseudopotential:          2
                             - Non-local part of the GTH pseudopotential:      4

  AUX_FIT ADMM-Basis: 
  Total number of            - Shell sets:                                  2799
                             - Shells:                                      2799
                             - Primitive Cartesian functions:               3609
                             - Cartesian basis functions:                   7546
                             - Spherical basis functions:                   6985
                               Maximum angular momentum                        3


 SCF PARAMETERS         Density guess:                                   RESTART
                        --------------------------------------------------------
                        max_scf:                                              10
                        max_scf_history:                                       0
                        max_diis:                                              4
                        --------------------------------------------------------
                        eps_scf:                                        1.00E-06
                        eps_scf_history:                                0.00E+00
                        eps_diis:                                       1.00E-01
                        eps_eigval:                                     1.00E-05
                        --------------------------------------------------------
                        level_shift [a.u.]:                             0.000000
                        --------------------------------------------------------
                        Outer loop SCF in use 
                        No variables optimised in outer loop
                        eps_scf                                         1.00E-06
                        max_scf                                               10
                        No outer loop optimization
                        step_size                                       5.00E-01

  HFX_INFO| Replica ID:                                                        1
  HFX_INFO| FRACTION:                                               0.2500000000
  HFX_INFO| Interaction Potential:                                     TRUNCATED
  HFX_INFO| Cutoff Radius [angstrom]:                               6.0000000000
  HFX_INFO| EPS_SCHWARZ:                                                 1.0E-08
  HFX_INFO| EPS_SCHWARZ_FORCES                                           1.0E-06
  HFX_INFO| EPS_STORAGE_SCALING:                                         1.0E+00
  HFX_INFO| NBINS:                                                            64
  HFX_INFO| BLOCK_SIZE:                                                        5
  HFX_INFO| NUMBER_OF_SHELLS:                                               AUTO
  HFX_INFO| Number of periodic shells considered:                             -1
  HFX_INFO| Number of periodic cells considered:                              27


 Number of electrons:                                                       2056
 Number of occupied orbitals:                                               1028
 Number of molecular orbitals:                                              1028

 Number of orbital functions:                                              11621
 Number of independent orbital functions:                                  11621

 Extrapolation method: initial_guess

 *** WARNING in qs_initial_guess.F:306 :: User requested to restart the   ***
 *** wavefunction from the file named: Replica_29-RESTART.wfn. This file  ***
 *** does not exist. Please check the existence of the file or change     ***
 *** properly the value of the keyword WFN_RESTART_FILE_NAME. Calculation ***
 *** continues using ATOMIC GUESS.                                        ***



 SCF WAVEFUNCTION OPTIMIZATION

  ----------------------------------- OT ---------------------------------------
  Minimizer      : DIIS                : direct inversion
                                         in the iterative subspace
                                         using   7 DIIS vectors
                                         safer DIIS on
  Preconditioner : FULL_SINGLE_INVERSE : inversion of 
                                         H + eS - 2*(Sc)(c^T*H*c+const)(Sc)^T
  Precond_solver : DEFAULT
  stepsize       :    0.08000000                  energy_gap     :    0.08000000
  eps_taylor     :   0.10000E-15                  max_taylor     :             4
  ----------------------------------- OT ---------------------------------------

  Step     Update method      Time    Convergence         Total energy    Change
  ------------------------------------------------------------------------------

  HFX_MEM_INFO| Est. max. program size before HFX [MiB]:                     702

 *** WARNING in hfx_energy_potential.F:587 :: The Kohn Sham matrix is not ***
 *** 100% occupied. This may result in incorrect Hartree-Fock results.    ***
 *** Setting MIN_PAIR_LIST_RADIUS to -1 in the QS section ensures a fully ***
 *** occupied KS matrix. For more information see FAQ:                    ***
 *** https://www.cp2k.org/faq:hfx_eps_warning                             ***

  HFX_MEM_INFO| Number of cart. primitive ERI's calculated:         567813671566
  HFX_MEM_INFO| Number of sph. ERI's calculated:                    306728643212
  HFX_MEM_INFO| Number of sph. ERI's stored in-core:                264361718516
  HFX_MEM_INFO| Number of sph. ERI's stored on disk:                           0
  HFX_MEM_INFO| Number of sph. ERI's calculated on the fly:          35902040965
  HFX_MEM_INFO| Total memory consumption ERI's RAM [MiB]:                 235228
  HFX_MEM_INFO| Whereof max-vals [MiB]:                                     4262
  HFX_MEM_INFO| Total compression factor ERI's RAM:                         8.57
  HFX_MEM_INFO| Total memory consumption ERI's disk [MiB]:                     0
  HFX_MEM_INFO| Total compression factor ERI's disk:                        0.00
  HFX_MEM_INFO| Size of density/Fock matrix [MiB]:                           154
  HFX_MEM_INFO| Size of buffers [MiB]:                                        79
  HFX_MEM_INFO| Number of periodic image cells considered:                    27
  HFX_MEM_INFO| Est. max. program size after HFX  [MiB]:                    4174

     1 OT DIIS     0.80E-01  437.6     0.01149362     -5005.0309186592 -5.01E+03
     2 OT DIIS     0.80E-01  108.3     0.00711409     -5083.4339836333 -7.84E+01
     3 OT DIIS     0.80E-01  109.0     0.00681705     -5121.4575852431 -3.80E+01
     4 OT DIIS     0.80E-01  109.2     0.00609266     -5141.4077537444 -2.00E+01
     5 OT DIIS     0.80E-01  108.5     0.00345429     -5183.5428421099 -4.21E+01
     6 OT DIIS     0.80E-01  108.4     0.00268255     -5196.2879485788 -1.27E+01
     7 OT DIIS     0.80E-01  108.6     0.00196980     -5206.2215525957 -9.93E+00
     8 OT DIIS     0.80E-01  108.7     0.00134745     -5213.0221512905 -6.80E+00
     9 OT DIIS     0.80E-01  108.5     0.00114710     -5215.5264025757 -2.50E+00
    10 OT DIIS     0.80E-01  108.6     0.00080710     -5218.4779081460 -2.95E+00

  Leaving inner SCF loop after reaching    10 steps.


  Electronic density on regular grids:      -2055.9999999811        0.0000000189
  Core density on regular grids:             2055.9999998531       -0.0000001469
  Total charge density on r-space grids:       -0.0000001280
  Total charge density g-space grids:          -0.0000001280

  Overlap energy of the core charge distribution:               0.00004703535124
  Self energy of the core charge distribution:              -9860.83173999830615
  Core Hamiltonian energy:                                   2922.00692241886145
  Hartree energy:                                            2792.26052986203831
  Exchange-correlation energy:                               -842.20782184506345
  Hartree-Fock Exchange energy:                              -228.88343540975072
  Dispersion energy:                                           -0.82241020915624

  Total energy:                                             -5218.47790814602558

  outer SCF iter =    1 RMS gradient =   0.81E-03 energy =      -5218.4779081460

  ----------------------------------- OT ---------------------------------------
  Minimizer      : DIIS                : direct inversion
                                         in the iterative subspace
                                         using   7 DIIS vectors
                                         safer DIIS on
  Preconditioner : FULL_SINGLE_INVERSE : inversion of 
                                         H + eS - 2*(Sc)(c^T*H*c+const)(Sc)^T
  Precond_solver : DEFAULT
  stepsize       :    0.08000000                  energy_gap     :    0.08000000
  eps_taylor     :   0.10000E-15                  max_taylor     :             4
  ----------------------------------- OT ---------------------------------------

  Step     Update method      Time    Convergence         Total energy    Change
  ------------------------------------------------------------------------------
     1 OT DIIS     0.80E-01  222.2     0.00131369     -5219.5457402711 -1.07E+00
     2 OT DIIS     0.80E-01  108.6     0.00113449     -5221.0702913176 -1.52E+00
     3 OT DIIS     0.80E-01  108.5     0.00070792     -5223.1042471145 -2.03E+00
     4 OT DIIS     0.80E-01  108.5     0.00057562     -5223.6212379798 -5.17E-01
     5 OT DIIS     0.80E-01  108.3     0.00043473     -5223.8273285642 -2.06E-01
     6 OT DIIS     0.80E-01  108.4     0.00030436     -5223.9748704452 -1.48E-01
     7 OT DIIS     0.80E-01  108.4     0.00021562     -5224.0130962582 -3.82E-02
     8 OT DIIS     0.80E-01  108.7     0.00018215     -5224.0303915092 -1.73E-02
     9 OT DIIS     0.80E-01  108.4     0.00017839     -5224.0608705606 -3.05E-02
    10 OT SD       0.80E-01  108.6     0.00015950     -5224.0748129353 -1.39E-02

  Leaving inner SCF loop after reaching    10 steps.


  Electronic density on regular grids:      -2055.9999999811        0.0000000189
  Core density on regular grids:             2055.9999998531       -0.0000001469
  Total charge density on r-space grids:       -0.0000001280
  Total charge density g-space grids:          -0.0000001280

  Overlap energy of the core charge distribution:               0.00004703535124
  Self energy of the core charge distribution:              -9860.83173999830615
  Core Hamiltonian energy:                                   2918.11384969340634
  Hartree energy:                                            2792.39711568388793
  Exchange-correlation energy:                               -842.53137644641993
  Hartree-Fock Exchange energy:                              -230.40029869405524
  Dispersion energy:                                           -0.82241020915624

  Total energy:                                             -5224.07481293529236

  outer SCF iter =    2 RMS gradient =   0.16E-03 energy =      -5224.0748129353

  ----------------------------------- OT ---------------------------------------
  Minimizer      : DIIS                : direct inversion
                                         in the iterative subspace
                                         using   7 DIIS vectors
                                         safer DIIS on
  Preconditioner : FULL_SINGLE_INVERSE : inversion of 
                                         H + eS - 2*(Sc)(c^T*H*c+const)(Sc)^T
  Precond_solver : DEFAULT
  stepsize       :    0.08000000                  energy_gap     :    0.08000000
  eps_taylor     :   0.10000E-15                  max_taylor     :             4
  ----------------------------------- OT ---------------------------------------

  Step     Update method      Time    Convergence         Total energy    Change
  ------------------------------------------------------------------------------
     1 OT DIIS     0.80E-01  221.4     0.00021861     -5224.1008583563 -2.60E-02
     2 OT SD       0.80E-01  108.8     0.00027312     -5224.1516311523 -5.08E-02
     3 OT SD       0.80E-01  108.4     0.00030821     -5224.2241614977 -7.25E-02
     4 OT SD       0.80E-01  108.3     0.00033578     -5224.2926151500 -6.85E-02
     5 OT DIIS     0.80E-01  108.5     0.00049375     -5224.3088840970 -1.63E-02
     6 OT DIIS     0.80E-01  108.3     0.00018361     -5224.3434152576 -3.45E-02
     7 OT SD       0.80E-01  108.3     0.00008351     -5224.3624332952 -1.90E-02
     8 OT DIIS     0.80E-01  108.5     0.00007995     -5224.3654653115 -3.03E-03
     9 OT DIIS     0.80E-01  108.2     0.00003956     -5224.3650432236  4.22E-04
    10 OT DIIS     0.80E-01  108.4     0.00003473     -5224.3662031168 -1.16E-03

  Leaving inner SCF loop after reaching    10 steps.


  Electronic density on regular grids:      -2056.0072004041       -0.0072004041
  Core density on regular grids:             2055.9999998531       -0.0000001469
  Total charge density on r-space grids:       -0.0072005511
  Total charge density g-space grids:          -0.0072005511

  Overlap energy of the core charge distribution:               0.00004703535124
  Self energy of the core charge distribution:              -9860.83173999830615
  Core Hamiltonian energy:                                   2917.82679702374890
  Hartree energy:                                            2792.49460408206505
  Exchange-correlation energy:                               -842.53160834265771
  Hartree-Fock Exchange energy:                              -230.50189270780297
  Dispersion energy:                                           -0.82241020915624

  Total energy:                                             -5224.36620311675779

  outer SCF iter =    3 RMS gradient =   0.35E-04 energy =      -5224.3662031168

  ----------------------------------- OT ---------------------------------------
  Minimizer      : DIIS                : direct inversion
                                         in the iterative subspace
                                         using   7 DIIS vectors
                                         safer DIIS on
  Preconditioner : FULL_SINGLE_INVERSE : inversion of 
                                         H + eS - 2*(Sc)(c^T*H*c+const)(Sc)^T
  Precond_solver : DEFAULT
  stepsize       :    0.08000000                  energy_gap     :    0.08000000
  eps_taylor     :   0.10000E-15                  max_taylor     :             4
  ----------------------------------- OT ---------------------------------------

  Step     Update method      Time    Convergence         Total energy    Change
  ------------------------------------------------------------------------------
     1 OT DIIS     0.80E-01  221.1     0.00000669     -5224.3660670573  1.36E-04
     2 OT DIIS     0.80E-01  108.5     0.00000453     -5224.3660967773 -2.97E-05
     3 OT DIIS     0.80E-01  108.3     0.00000339     -5224.3661110317 -1.43E-05
     4 OT DIIS     0.80E-01  108.4     0.00000129     -5224.3661313334 -2.03E-05
     5 OT DIIS     0.80E-01  108.5     0.00000035     -5224.3661334214 -2.09E-06

  *** SCF run converged in     5 steps ***


  Electronic density on regular grids:      -2055.9999999811        0.0000000189
  Core density on regular grids:             2055.9999998531       -0.0000001469
  Total charge density on r-space grids:       -0.0000001280
  Total charge density g-space grids:          -0.0000001280

  Overlap energy of the core charge distribution:               0.00004703535124
  Self energy of the core charge distribution:              -9860.83173999830615
  Core Hamiltonian energy:                                   2917.83192687848577
  Hartree energy:                                            2792.48820671543581
  Exchange-correlation energy:                               -842.53064770015339
  Hartree-Fock Exchange energy:                              -230.50151614304951
  Dispersion energy:                                           -0.82241020915624

  Total energy:                                             -5224.36613342139208

  outer SCF iter =    4 RMS gradient =   0.35E-06 energy =      -5224.3661334214
  outer SCF loop converged in   4 iterations or   35 steps


 ENERGY| Total FORCE_EVAL ( QS ) energy [a.u.]:            -5224.366133421392078

 -------------------------------------------------------------------------------
 -                                                                             -
 -                                DBCSR STATISTICS                             -
 -                                                                             -
 -------------------------------------------------------------------------------
 COUNTER                                    TOTAL       BLAS       SMM       ACC
 flops     4 x     4 x   917               117376       0.0%    100.0%      0.0%     
 flops     4 x     4 x   920               117760       0.0%    100.0%      0.0%     
 flops     4 x     4 x   938               120064       0.0%    100.0%      0.0%     
 flops    14 x     4 x     4               172032       0.0%    100.0%      0.0%     
 flops    41 x     4 x     4               419840       0.0%    100.0%      0.0%     
 flops    29 x     4 x     4              2383104       0.0%    100.0%      0.0%     
 flops    32 x     4 x   917             15024128       0.0%    100.0%      0.0%     
 flops     4 x    32 x   917             15024128       0.0%    100.0%      0.0%     
 flops    32 x     4 x   920             15073280       0.0%    100.0%      0.0%     
 flops     4 x    32 x   920             15073280       0.0%    100.0%      0.0%     
 flops    32 x     4 x   938             15368192       0.0%    100.0%      0.0%     
 flops     4 x    32 x   938             15368192       0.0%    100.0%      0.0%     
 flops    14 x    32 x     4             22020096       0.0%    100.0%      0.0%     
 flops    14 x     4 x    32             22020096       0.0%    100.0%      0.0%     
 flops    41 x    32 x     4             53739520       0.0%    100.0%      0.0%     
 flops    41 x     4 x    32             53739520       0.0%    100.0%      0.0%     
 flops     6 x     6 x    68             83280960       0.0%    100.0%      0.0%     
 flops    31 x     6 x    68            127491840       0.0%    100.0%      0.0%     
 flops    14 x     4 x    14            132464640       0.0%    100.0%      0.0%     
 flops     6 x     6 x    64            235146240       0.0%    100.0%      0.0%     
 flops    29 x    32 x     4            305037312       0.0%    100.0%      0.0%     
 flops    29 x     4 x    32            305037312       0.0%    100.0%      0.0%     
 flops    31 x     6 x    64            359976960       0.0%    100.0%      0.0%     
 flops   164 x    68 x    68            392818048       0.0%    100.0%      0.0%     
 flops    41 x    14 x    68            464636928       0.0%    100.0%      0.0%     
 flops    14 x    14 x    68            609036288       0.0%    100.0%      0.0%     
 flops    41 x     4 x    14            620691456       0.0%    100.0%      0.0%     
 flops    14 x     4 x    41            620691456       0.0%    100.0%      0.0%     
 flops     6 x    31 x    68            892442880       0.0%    100.0%      0.0%     
 flops   192 x    68 x    68            919769088       0.0%    100.0%      0.0%     
 flops     6 x     6 x    96            940584960       0.0%    100.0%      0.0%     
 flops     6 x    17 x    68           1100188320       0.0%    100.0%      0.0%     
 flops   164 x    64 x    68           1109133312       0.0%    100.0%      0.0%     
 flops   164 x    68 x    64           1109133312       0.0%    100.0%      0.0%     
 flops   160 x    68 x    68           1149711360       0.0%    100.0%      0.0%     
 flops    41 x    14 x    64           1311916032       0.0%    100.0%      0.0%     
 flops    17 x     6 x    68           1318672320       0.0%    100.0%      0.0%     
 flops    31 x     6 x    96           1439907840       0.0%    100.0%      0.0%     
 flops    14 x    14 x    64           1719631872       0.0%    100.0%      0.0%     
 flops    41 x     4 x    41           1884011008       0.0%    100.0%      0.0%     
 flops    14 x     4 x    29           2060791040       0.0%    100.0%      0.0%     
 flops    29 x     4 x    14           2060791040       0.0%    100.0%      0.0%     
 flops     6 x    31 x    64           2519838720       0.0%    100.0%      0.0%     
 flops   192 x    64 x    68           2596995072       0.0%    100.0%      0.0%     
 flops   192 x    68 x    64           2596995072       0.0%    100.0%      0.0%     
 flops   164 x    68 x   917           2781576448       0.0%    100.0%      0.0%     
 flops   164 x    68 x   920           2790676480       0.0%    100.0%      0.0%     
 flops   164 x    68 x   938           2845276672       0.0%    100.0%      0.0%     
 flops  1925 x    68 x    68           2973000800       0.0%    100.0%      0.0%     
 flops  1948 x    68 x    68           3008522368       0.0%    100.0%      0.0%     
 flops    31 x    31 x    68           3092267360       0.0%    100.0%      0.0%     
 flops     6 x    17 x    64           3106414080       0.0%    100.0%      0.0%     
 flops   164 x    64 x    64           3131670528       0.0%    100.0%      0.0%     
 flops   160 x    64 x    68           3246243840       0.0%    100.0%      0.0%     
 flops   160 x    68 x    64           3246243840       0.0%    100.0%      0.0%     
 flops    17 x     6 x    64           3723310080       0.0%    100.0%      0.0%     
 flops    32 x    32 x   917           3966369792       0.0%    100.0%      0.0%     
 flops    32 x    32 x   920           3979345920       0.0%    100.0%      0.0%     
 flops    32 x    32 x   938           4057202688       0.0%    100.0%      0.0%     
 flops   164 x    68 x    96           4436533248       0.0%    100.0%      0.0%     
 flops   164 x    96 x    68           4436533248       0.0%    100.0%      0.0%     
 flops    14 x    41 x    68           4451521536       0.0%    100.0%      0.0%     
 flops    41 x    14 x    96           5247664128       0.0%    100.0%      0.0%     
 flops    14 x    32 x    32           5813305344       0.0%    100.0%      0.0%     
 flops  1936 x    68 x    68           5979978752       0.0%    100.0%      0.0%     
 flops  1938 x    68 x    68           5986156416       0.0%    100.0%      0.0%     
 flops   192 x    68 x   917           6512959488       0.0%    100.0%      0.0%     
 flops   192 x    68 x   920           6534266880       0.0%    100.0%      0.0%     
 flops   192 x    68 x   938           6662111232       0.0%    100.0%      0.0%     
 flops    14 x    14 x    96           6878527488       0.0%    100.0%      0.0%     
 flops   192 x    64 x    64           7332691968       0.0%    100.0%      0.0%     
 flops    41 x    41 x    68           7465684096       0.0%    100.0%      0.0%     
 flops    14 x    29 x    68           7590653952       0.0%    100.0%      0.0%     
 flops   164 x    64 x   917           7853862912       0.0%    100.0%      0.0%     
 flops   164 x    64 x   920           7879557120       0.0%    100.0%      0.0%     
 flops   164 x    64 x   938           8033722368       0.0%    100.0%      0.0%     
 flops   160 x    68 x   917           8141199360       0.0%    100.0%      0.0%     
 flops   160 x    68 x   920           8167833600       0.0%    100.0%      0.0%     
 flops   160 x    68 x   938           8327639040       0.0%    100.0%      0.0%     
 flops  1925 x    64 x    68           8394355200       0.0%    100.0%      0.0%     
 flops  1925 x    68 x    64           8394355200       0.0%    100.0%      0.0%     
 flops  1948 x    64 x    68           8494651392       0.0%    100.0%      0.0%     
 flops  1948 x    68 x    64           8494651392       0.0%    100.0%      0.0%     
 flops    17 x    31 x    68           8714598480       0.0%    100.0%      0.0%     
 flops    31 x    31 x    64           8731107840       0.0%    100.0%      0.0%     
 flops   160 x    64 x    64           9165864960       0.0%    100.0%      0.0%     
 flops  1925 x    68 x   917           9362753400       0.0%    100.0%      0.0%     
 flops  1925 x    68 x   920           9393384000       0.0%    100.0%      0.0%     
 flops  1948 x    68 x   917           9474620064       0.0%    100.0%      0.0%     
 flops  1948 x    68 x   920           9505616640       0.0%    100.0%      0.0%     
 flops  1925 x    68 x   938           9577167600       0.0%    100.0%      0.0%     
 flops  1948 x    68 x   938           9691596096       0.0%    100.0%      0.0%     
 flops    41 x     4 x    29          10021234432       0.0%    100.0%      0.0%     
 flops    29 x     4 x    41          10021234432       0.0%    100.0%      0.0%     
 flops     6 x    31 x    96          10079354880       0.0%    100.0%      0.0%     
 flops    29 x    14 x    68          10144283520       0.0%    100.0%      0.0%     
 flops   192 x    96 x    68          10387980288       0.0%    100.0%      0.0%     
 flops   192 x    68 x    96          10387980288       0.0%    100.0%      0.0%     
 flops    31 x    17 x    68          11599396480       0.0%    100.0%      0.0%     
 flops     6 x    17 x    96          12425656320       0.0%    100.0%      0.0%     
 flops   164 x    64 x    96          12526682112       0.0%    100.0%      0.0%     
 flops   164 x    96 x    64          12526682112       0.0%    100.0%      0.0%     
 flops    14 x    41 x    64          12569001984       0.0%    100.0%      0.0%     
 flops   160 x    68 x    96          12984975360       0.0%    100.0%      0.0%     
 flops   160 x    96 x    68          12984975360       0.0%    100.0%      0.0%     
 flops    41 x    32 x    32          14187233280       0.0%    100.0%      0.0%     
 flops    17 x     6 x    96          14893240320       0.0%    100.0%      0.0%     
 flops  1936 x    64 x    68          16884645888       0.0%    100.0%      0.0%     
 flops  1936 x    68 x    64          16884645888       0.0%    100.0%      0.0%     
 flops  1938 x    64 x    68          16902088704       0.0%    100.0%      0.0%     
 flops  1938 x    68 x    64          16902088704       0.0%    100.0%      0.0%     
 flops   192 x    64 x   917          18389532672       0.0%    100.0%      0.0%     
 flops   192 x    64 x   920          18449694720       0.0%    100.0%      0.0%     
 flops   192 x    64 x   938          18810667008       0.0%    100.0%      0.0%     
 flops  1936 x    68 x   917          18832509696       0.0%    100.0%      0.0%     
 flops  1938 x    68 x   917          18851964768       0.0%    100.0%      0.0%     
 flops  1936 x    68 x   920          18894120960       0.0%    100.0%      0.0%     
 flops  1938 x    68 x   920          18913639680       0.0%    100.0%      0.0%     
 flops  1936 x    68 x   938          19263788544       0.0%    100.0%      0.0%     
 flops  1938 x    68 x   938          19283689152       0.0%    100.0%      0.0%     
 flops    41 x    41 x    64          21079578624       0.0%    100.0%      0.0%     
 flops    17 x    17 x    68          21191734200       0.0%    100.0%      0.0%     
 flops    14 x    29 x    64          21432434688       0.0%    100.0%      0.0%     
 flops   160 x    64 x   917          22986915840       0.0%    100.0%      0.0%     
 flops   160 x    64 x   920          23062118400       0.0%    100.0%      0.0%     
 flops   160 x    64 x   938          23513333760       0.0%    100.0%      0.0%     
 flops  1925 x    64 x    64          23701708800       0.0%    100.0%      0.0%     
 flops  1948 x    64 x    64          23984898048       0.0%    100.0%      0.0%     
 flops    17 x    31 x    64          24605925120       0.0%    100.0%      0.0%     
 flops  1925 x    64 x   917          26436009600       0.0%    100.0%      0.0%     
 flops  1925 x    64 x   920          26522496000       0.0%    100.0%      0.0%     
 flops  1948 x    64 x   917          26751868416       0.0%    100.0%      0.0%     
 flops  1948 x    64 x   920          26839388160       0.0%    100.0%      0.0%     
 flops  1925 x    64 x   938          27041414400       0.0%    100.0%      0.0%     
 flops  1948 x    64 x   938          27364506624       0.0%    100.0%      0.0%     
 flops    29 x    14 x    64          28642682880       0.0%    100.0%      0.0%     
 flops   192 x    96 x    64          29330767872       0.0%    100.0%      0.0%     
 flops   192 x    64 x    96          29330767872       0.0%    100.0%      0.0%     
 flops   164 x    96 x   917          31415451648       0.0%    100.0%      0.0%     
 flops   164 x    96 x   920          31518228480       0.0%    100.0%      0.0%     
 flops   164 x    96 x   938          32134889472       0.0%    100.0%      0.0%     
 flops    31 x    17 x    64          32751237120       0.0%    100.0%      0.0%     
 flops    29 x    41 x    68          33199124832       0.0%    100.0%      0.0%     
 flops  1925 x    68 x    96          33577420800       0.0%    100.0%      0.0%     
 flops  1925 x    96 x    68          33577420800       0.0%    100.0%      0.0%     
 flops    14 x    32 x    14          33910947840       0.0%    100.0%      0.0%     
 flops  1948 x    68 x    96          33978605568       0.0%    100.0%      0.0%     
 flops  1948 x    96 x    68          33978605568       0.0%    100.0%      0.0%     
 flops    31 x    31 x    96          34924431360       0.0%    100.0%      0.0%     
 flops    29 x     4 x    29          35834673600       0.0%    100.0%      0.0%     
 flops   160 x    64 x    96          36663459840       0.0%    100.0%      0.0%     
 flops   160 x    96 x    64          36663459840       0.0%    100.0%      0.0%     
 flops    41 x    29 x    68          44799122976       0.0%    100.0%      0.0%     
 flops  1936 x    64 x    64          47674294272       0.0%    100.0%      0.0%     
 flops  1938 x    64 x    64          47723544576       0.0%    100.0%      0.0%     
 flops   164 x    96 x    96          50106728448       0.0%    100.0%      0.0%     
 flops    14 x    41 x    96          50276007936       0.0%    100.0%      0.0%     
 flops  1936 x    64 x   917          53174145024       0.0%    100.0%      0.0%     
 flops  1938 x    64 x   917          53229076992       0.0%    100.0%      0.0%     
 flops  1936 x    64 x   920          53348106240       0.0%    100.0%      0.0%     
 flops  1938 x    64 x   920          53403217920       0.0%    100.0%      0.0%     
 flops  1936 x    64 x   938          54391873536       0.0%    100.0%      0.0%     
 flops  1938 x    64 x   938          54448063488       0.0%    100.0%      0.0%     
 flops    17 x    17 x    64          59835484800       0.0%    100.0%      0.0%     
 flops  1936 x    96 x    68          67538583552       0.0%    100.0%      0.0%     
 flops  1936 x    68 x    96          67538583552       0.0%    100.0%      0.0%     
 flops  1938 x    68 x    96          67608354816       0.0%    100.0%      0.0%     
 flops  1938 x    96 x    68          67608354816       0.0%    100.0%      0.0%     
 flops   192 x    96 x   917          73558130688       0.0%    100.0%      0.0%     
 flops   192 x    96 x   920          73798778880       0.0%    100.0%      0.0%     
 flops   192 x    96 x   938          75242668032       0.0%    100.0%      0.0%     
 flops    29 x    32 x    32          80529850368       0.0%    100.0%      0.0%     
 flops    41 x    41 x    96          84318314496       0.0%    100.0%      0.0%     
 flops    14 x    29 x    96          85729738752       0.0%    100.0%      0.0%     
 flops   160 x    96 x   917          91947663360       0.0%    100.0%      0.0%     
 flops   160 x    96 x   920          92248473600       0.0%    100.0%      0.0%     
 flops    29 x    41 x    64          93738705408       0.0%    100.0%      0.0%     
 flops   160 x    96 x   938          94053335040       0.0%    100.0%      0.0%     
 flops  1925 x    64 x    96          94806835200       0.0%    100.0%      0.0%     
 flops  1925 x    96 x    64          94806835200       0.0%    100.0%      0.0%     
 flops  1948 x    64 x    96          95939592192       0.0%    100.0%      0.0%     
 flops  1948 x    96 x    64          95939592192       0.0%    100.0%      0.0%     
 flops    17 x    31 x    96          98423700480       0.0%    100.0%      0.0%     
 flops  1925 x    96 x   917         105744038400       0.0%    100.0%      0.0%     
 flops  1925 x    96 x   920         106089984000       0.0%    100.0%      0.0%     
 flops  1948 x    96 x   917         107007473664       0.0%    100.0%      0.0%     
 flops  1948 x    96 x   920         107357552640       0.0%    100.0%      0.0%     
 flops  1925 x    96 x   938         108165657600       0.0%    100.0%      0.0%     
 flops  1948 x    96 x   938         109458026496       0.0%    100.0%      0.0%     
 flops    29 x    14 x    96         114570731520       0.0%    100.0%      0.0%     
 flops   192 x    96 x    96         117323071488       0.0%    100.0%      0.0%     
 flops    41 x    29 x    64         126491641344       0.0%    100.0%      0.0%     
 flops    31 x    17 x    96         131004948480       0.0%    100.0%      0.0%     
 flops   160 x    96 x    96         146653839360       0.0%    100.0%      0.0%     
 flops    29 x    29 x    68         148912061952       0.0%    100.0%      0.0%     
 flops    41 x    32 x    14         158897012736       0.0%    100.0%      0.0%     
 flops    14 x    32 x    41         158897012736       0.0%    100.0%      0.0%     
 flops  1936 x    96 x    64         190697177088       0.0%    100.0%      0.0%     
 flops  1936 x    64 x    96         190697177088       0.0%    100.0%      0.0%     
 flops  1938 x    64 x    96         190894178304       0.0%    100.0%      0.0%     
 flops  1938 x    96 x    64         190894178304       0.0%    100.0%      0.0%     
 flops  1936 x    96 x   917         212696580096       0.0%    100.0%      0.0%     
 flops  1938 x    96 x   917         212916307968       0.0%    100.0%      0.0%     
 flops  1936 x    96 x   920         213392424960       0.0%    100.0%      0.0%     
 flops  1938 x    96 x   920         213612871680       0.0%    100.0%      0.0%     
 flops  1936 x    96 x   938         217567494144       0.0%    100.0%      0.0%     
 flops  1938 x    96 x   938         217792253952       0.0%    100.0%      0.0%     
 flops    17 x    17 x    96         239341939200       0.0%    100.0%      0.0%     
 flops    29 x    41 x    96         374954821632       0.0%    100.0%      0.0%     
 flops  1925 x    96 x    96         379227340800       0.0%    100.0%      0.0%     
 flops  1948 x    96 x    96         383758368768       0.0%    100.0%      0.0%     
 flops    29 x    29 x    64         420457586688       0.0%    100.0%      0.0%     
 flops    41 x    32 x    41         482306818048       0.0%    100.0%      0.0%     
 flops    41 x    29 x    96         505966565376       0.0%    100.0%      0.0%     
 flops    14 x    32 x    29         527562506240       0.0%    100.0%      0.0%     
 flops    29 x    32 x    14         527562506240       0.0%    100.0%      0.0%     
 flops  1936 x    96 x    96         762788708352       0.0%    100.0%      0.0%     
 flops  1938 x    96 x    96         763576713216       0.0%    100.0%      0.0%     
 flops    29 x    29 x    96        1681830346752       0.0%    100.0%      0.0%     
 flops    41 x    32 x    29        2565436014592       0.0%    100.0%      0.0%     
 flops    29 x    32 x    41        2565436014592       0.0%    100.0%      0.0%     
 flops    29 x    32 x    29        9173676441600       0.0%    100.0%      0.0%     
 flops inhomo. stacks              11246042409336     100.0%      0.0%      0.0%
 flops total                        40.286702E+12      27.9%     72.1%      0.0%
 flops max/rank                    641.728235E+09      28.2%     71.8%      0.0%
 matmuls inhomo. stacks                    133596     100.0%      0.0%      0.0%
 matmuls total                          345510828       0.0%    100.0%      0.0%
 number of processed stacks               1955068       5.9%     94.1%      0.0%
 average stack size                                     1.2     187.8       0.0
 marketing flops                    58.277497E+12
 -------------------------------------------------------------------------------
 # multiplications                            780
 max memory usage/rank               4.366344E+09
 # max total images/rank                        2
 # max 3D layers                                1
 # MPI messages exchanged                 1179360
 MPI messages size (bytes):
  total size                         1.753654E+12
  min size                           0.000000E+00
  max size                          15.911264E+06
  average size                       1.486954E+06
 MPI breakdown and total messages size (bytes):
             size <=      128                8688                        0
       128 < size <=     8192                   0                        0
      8192 < size <=    32768               19590                639306240
     32768 < size <=   131072              449794              34907210624
    131072 < size <=  4194304              600704             558797438464
   4194304 < size <= 16777216              100584            1159305918056
  16777216 < size                               0                        0
 -------------------------------------------------------------------------------

 *** WARNING in dbcsr_mm.F:301 :: Using a non-square number of MPI ranks ***
 *** might lead to poor performance. Used ranks: 72 Suggested: 64 144    ***

 -------------------------------------------------------------------------------
 -                                                                             -
 -                      DBCSR MESSAGE PASSING PERFORMANCE                      -
 -                                                                             -
 -------------------------------------------------------------------------------
 ROUTINE             CALLS      AVE VOLUME [Bytes]
 MP_Bcast              223                     12.
 MP_Allreduce         4593                     28.
 MP_Alltoall          5106                 549017.
 MP_ISend            36808                 694946.
 MP_IRecv            36808                 689191.
 -------------------------------------------------------------------------------

 -------------------------------------------------------------------------------
 -                                                                             -
 -                                DBM STATISTICS                               -
 -                                                                             -
 -------------------------------------------------------------------------------
    M  x    N  x    K                                          COUNT     PERCENT
 -------------------------------------------------------------------------------

 -------------------------------------------------------------------------------
 -                                                                             -
 -                                GRID STATISTICS                              -
 -                                                                             -
 -------------------------------------------------------------------------------
 LP    KERNEL             BACKEND                              COUNT     PERCENT
 6     collocate ortho    CPU                                9499196      16.29%
 6     integrate ortho    CPU                                9235485      15.84%
 1     collocate ortho    CPU                                6761685      11.60%
 1     integrate ortho    CPU                                6761685      11.60%
 2     collocate ortho    CPU                                5276600       9.05%
 2     integrate ortho    CPU                                5276600       9.05%
 0     collocate ortho    CPU                                3264555       5.60%
 0     integrate ortho    CPU                                3264555       5.60%
 3     collocate ortho    CPU                                2116380       3.63%
 3     integrate ortho    CPU                                2116380       3.63%
 5     collocate ortho    CPU                                1778840       3.05%
 5     integrate ortho    CPU                                1731520       2.97%
 4     collocate ortho    CPU                                 592857       1.02%
 4     integrate ortho    CPU                                 589785       1.01%
 0     collocate general  CPU                                  29448       0.05%
 -------------------------------------------------------------------------------

 MEMORY| Estimated peak process memory [MiB]                                4319

 -------------------------------------------------------------------------------
 -                                                                             -
 -                         MESSAGE PASSING PERFORMANCE                         -
 -                                                                             -
 -------------------------------------------------------------------------------

 ROUTINE             CALLS      AVE VOLUME [Bytes]
 MP_Group                4
 MP_Bcast             4207                3562328.
 MP_Allreduce         9840                   3624.
 MP_Sync               209
 MP_Alltoall          1472               15653501.
 MP_SendRecv         10082                 109696.
 MP_ISendRecv        15052                 496304.
 MP_Wait             24674
 MP_comm_split          27
 MP_ISend             8490                 545994.
 MP_IRecv             8490                 545922.
 -------------------------------------------------------------------------------


 -------------------------------------------------------------------------------
 -                                                                             -
 -                           R E F E R E N C E S                               -
 -                                                                             -
 -------------------------------------------------------------------------------
 
 CP2K version 2024.2 (Development Version), the CP2K developers group (2024).
 CP2K is freely available from https://www.cp2k.org/ .
 
 T. D. Kuehne, M. Iannuzzi, M. Del Ben, V. V. Rybkin, P. Seewald, F. Stein, T. 
 Laino, R. Z. Khaliullin, O. Schuett, F. Schiffmann, D. Golze, J. Wilhelm, S. 
 Chulkov, M. H. Bani-Hashemian, V. Weber, U. Borstnik, M. Taillefumier, A. S. 
 Jakobovits, A. Lazzaro, H. Pabst, T. Mueller, R. Schade, M. Guidon, S. 
 Andermatt, N. Holmberg, G. K. Schenter, A. Hehn, A. Bussy, F. Belleflamme, G. 
 Tabacchi, A. Gloess, M. Lass, I. Bethune, C. J. Mundy, C. Plessl, M. Watkins, 
 J. VandeVondele, M. Krack, J. Hutter.
 J. Chem. Phys. 152, 194103 (2020).
 CP2K: An electronic structure and molecular dynamics software package - 
 Quickstep: Efficient and accurate electronic structure calculations.
 https://doi.org/10.1063/5.0007045

 S. Lehtola, C. Steigemann, M. J. T. Oliveira, M. A. L. Marques.
 SoftwareX 7, 1-5 (2018).
 Recent developments in libxc - A comprehensive library of functionals for 
 density functional theory.
 https://doi.org/10.1016/j.softx.2017.11.002

 L. Goerigk, A. Hansen, C. Bauer, S. Ehrlich, A. Najibi, S. Grimme.
 Phys. Chem. Chem. Phys. 19, 32184-32215 (2017).
 A look at the density functional theory zoo with the advanced GMTKN55 database 
 for general main group thermochemistry, kinetics and noncovalent interactions.
 https://doi.org/10.1039/C7CP04913G

 O. Schuett, P. Messmer, J. Hutter, J. VandeVondele.
 Electronic Structure Calculations on Graphics Processing Units, 173-190 (2016).
 GPU-Accelerated Sparse Matrix-Matrix Multiplication for Linear Scaling Density 
 Functional Theory.
 https://doi.org/10.1002/9781118670712.ch8

 A. Heinecke, G. Henry, M. Hutchinson, H. Pabst.
 Proceedings of Intl. Supercomputing Conference, 981-991 (2016).
 LIBXSMM: Accelerating Small Matrix Multiplications by Runtime Code Generation.
 https://doi.org/10.1109/SC.2016.83

 J. Hutter, M. Iannuzzi, F. Schiffmann, J. VandeVondele.
 WIREs Comput Mol Sci. 4, 15-25 (2014).
 CP2K: atomistic simulations of condensed matter systems.
 https://doi.org/10.1002/wcms.1159

 U. Borstnik, J. VandeVondele, V. Weber, J. Hutter.
 Parallel Comput. 40, 47-58 (2014).
 Sparse matrix multiplication: The distributed block-compressed sparse row 
 library.
 https://doi.org/10.1016/j.parco.2014.03.012

 M. A. L. Marques, M. J. T. Oliveira, T. Burnus.
 Comput. Phys. Commun. 183, 2272-2281 (2012).
 LIBXC: A library of exchange and correlation functionals for density functional 
 theory.
 https://doi.org/10.1016/j.cpc.2012.05.007

 S. Grimme, S. Ehrlich, L. Goerigk.
 J. Comput. Chem. 32, 1456 (2011).
 Effect of the damping function in dispersion corrected density functional 
 theory.
 https://doi.org/10.1002/jcc.21759

 S. Grimme, J. Antony, S. Ehrlich, H. Krieg.
 J. Chem. Phys. 132, 154104 (2010).
 A consistent and accurate ab initio parametrization of density functional 
 dispersion correction (DFT-D) for the 94 elements H-Pu.
 https://doi.org/10.1063/1.3382344

 M. Guidon, J. Hutter, J. VandeVondele.
 J. Chem. Theory Comput. 6, 2348-2364 (2010).
 Auxiliary Density Matrix Methods for Hartree-Fock Exchange Calculations.
 https://doi.org/10.1021/ct1002225

 M. Guidon, J. Hutter, J. VandeVondele.
 J. Chem. Theory Comput. 5, 3010-3021 (2009).
 Robust Periodic Hartree-Fock Exchange for Large-Scale Simulations Using 
 Gaussian Basis Sets.
 https://doi.org/10.1021/ct900494g

 M. Guidon, F. Schiffmann, J. Hutter, J. VandeVondele.
 J. Chem. Phys. 128, 214104 (2008).
 Ab initio molecular dynamics using hybrid density functionals.
 https://doi.org/10.1063/1.2931945

 J. VandeVondele, J. Hutter.
 J. Chem. Phys. 127, 114105 (2007).
 Gaussian basis sets for accurate calculations on molecular systems in gas and 
 condensed phases.
 https://doi.org/10.1063/1.2770708

 J. VandeVondele, M. Krack, F. Mohamed, M. Parrinello, T. Chassaing, J. Hutter.
 Comput. Phys. Commun. 167, 103-128 (2005).
 QUICKSTEP: Fast and accurate density functional calculations using a mixed 
 Gaussian and plane waves approach.
 https://doi.org/10.1016/j.cpc.2004.12.014

 M. Krack.
 Theor. Chem. Acc. 114, 145-152 (2005).
 Pseudopotentials for H to Kr optimized for gradient-corrected 
 exchange-correlation functionals.
 https://doi.org/10.1007/s00214-005-0655-y

 M. Frigo, S. G. Johnson.
 Proc. IEEE 93, 216-231 (2005).
 The design and implementation of FFTW3.
 https://doi.org/10.1109/JPROC.2004.840301

 J. VandeVondele, J. Hutter.
 J. Chem. Phys. 118, 4365-4369 (2003).
 An efficient orbital transformation method for electronic structure 
 calculations.
 https://doi.org/10.1063/1.1543154

 C. Hartwigsen, S. Goedecker, J. Hutter.
 Phys. Rev. B 58, 3641-3662 (1998).
 Relativistic separable dual-space Gaussian pseudopotentials from H to Rn.
 https://doi.org/10.1103/PhysRevB.58.3641

 G. Lippert, J. Hutter, M. Parrinello.
 Mol. Phys. 92, 477-487 (1997).
 A hybrid Gaussian and plane wave density functional scheme.
 https://doi.org/10.1080/002689797170220

 S. Goedecker, M. Teter, J. Hutter.
 Phys. Rev. B 54, 1703-1710 (1996).
 Separable dual-space Gaussian pseudopotentials.
 https://doi.org/10.1103/PhysRevB.54.1703

 J. P. Perdew, K. Burke, M. Ernzerhof.
 Phys. Rev. Lett. 77, 3865-3868 (1996).
 Generalized gradient approximation made simple.
 https://doi.org/10.1103/PhysRevLett.77.3865


 -------------------------------------------------------------------------------
 -                                                                             -
 -                                T I M I N G                                  -
 -                                                                             -
 -------------------------------------------------------------------------------
 SUBROUTINE                       CALLS  ASD         SELF TIME        TOTAL TIME
                                MAXIMUM       AVERAGE  MAXIMUM  AVERAGE  MAXIMUM
 CP2K                                 1  1.0    0.117    0.135 4145.598 4145.609
 qs_energies                          1  2.0    0.003    0.005 4143.792 4143.803
 scf_env_do_scf                       1  3.0    0.000    0.000 4141.280 4141.293
 qs_ks_update_qs_env                 39  5.0    0.000    0.000 4063.161 4063.177
 rebuild_ks_matrix                   35  6.0    0.000    0.000 4063.010 4063.024
 qs_ks_build_kohn_sham_matrix        35  7.0    0.006    0.008 4063.010 4063.024
 hfx_ks_matrix                       35  8.0    0.002    0.003 3853.556 3853.573
 integrate_four_center               35  9.0    1.761    2.229 3853.342 3853.356
 integrate_four_center_main          35 10.0    0.039    0.043 3560.223 3789.508
 integrate_four_center_bin         2240 11.0 3560.184 3789.471 3560.184 3789.471
 scf_env_do_scf_inner_loop           35  4.0    0.001    0.009 3371.355 3371.587
 init_scf_loop                        4  4.0    0.000    0.000  769.799  769.821
 mp_sync                            209 11.0  235.496  440.401  235.496  440.401
 -------------------------------------------------------------------------------

 The number of warnings for this run is : 3
 
 -------------------------------------------------------------------------------
  **** **** ******  **  PROGRAM ENDED AT                 2024-09-13 01:23:57.217
 ***** ** ***  *** **   PROGRAM RAN ON                                  nid02963
 **    ****   ******    PROGRAM RAN BY                                  bsertcan
 ***** **    ** ** **   PROGRAM PROCESS ID                                  2698
  **** **  *******  **  PROGRAM STOPPED IN /scratch/snx3000/bsertcan/MFU_sp/cl/x
                                           e/rep29
