 DBCSR| CPU Multiplication driver                                           XSMM (U)
 DBCSR| Multrec recursion limit                                              512 (U)
 DBCSR| Multiplication stack size                                           1000 (D)
 DBCSR| Maximum elements for images                                    UNLIMITED (U)
 DBCSR| Multiplicative factor virtual images                                   1 (U)
 DBCSR| Use multiplication densification                                       T (D)
 DBCSR| Multiplication size stacks                                             3 (U)
 DBCSR| Use memory pool for CPU allocation                                     F (U)
 DBCSR| Number of 3D layers                                               SINGLE (U)
 DBCSR| Use MPI memory allocation                                              F (U)
 DBCSR| Use RMA algorithm                                                      F (U)
 DBCSR| Use Communication thread                                               T (U)
 DBCSR| Communication thread load                                             87 (D)
 DBCSR| MPI: My process id                                                     0
 DBCSR| MPI: Number of processes                                             144
 DBCSR| OMP: Current number of threads                                         1
 DBCSR| OMP: Max number of threads                                             1
 DBCSR| Split modifier for TAS multiplication algorithm                  1.0E+00 (U)


  **** **** ******  **  PROGRAM STARTED AT               2024-09-13 00:45:46.771
 ***** ** ***  *** **   PROGRAM STARTED ON                              nid06508
 **    ****   ******    PROGRAM STARTED BY                              bsertcan
 ***** **    ** ** **   PROGRAM PROCESS ID                                 10861
  **** **  *******  **  PROGRAM STARTED IN /scratch/snx3000/bsertcan/MFU_sp/br/x
                                           e/rep15

 CP2K| version string:                 CP2K version 2024.2 (Development Version)
 CP2K| source code revision number:                                  git:42d1e6b
 CP2K| cp2kflags: omp libint fftw3 libxc parallel scalapack xsmm                
 CP2K| is freely available from                            https://www.cp2k.org/
 CP2K| Program compiled at                         Tue Sep  3 22:59:39 CEST 2024
 CP2K| Program compiled on                                              daint106
 CP2K| Program compiled for                                                local
 CP2K| Data directory path                             /users/bsertcan/cp2k/data
 CP2K| Input file name                                                 input.inp

 GLOBAL| Force Environment number                                              1
 GLOBAL| Basis set file name                                    BASIS_MOLOPT_UZH
 GLOBAL| Potential file name                                       POTENTIAL_UZH
 GLOBAL| MM Potential file name                                     MM_POTENTIAL
 GLOBAL| Coordinate file name                                         rep_15.xyz
 GLOBAL| Method name                                                        CP2K
 GLOBAL| Project name                                                 Replica_15
 GLOBAL| Run type                                                         ENERGY
 GLOBAL| FFT library                                                       FFTW3
 GLOBAL| Diagonalization library                                       ScaLAPACK
 GLOBAL| DGEMM library                                                      BLAS
 GLOBAL| Orthonormality check for eigenvectors                          DISABLED
 GLOBAL| Matrix multiplication library                                 ScaLAPACK
 GLOBAL| All-to-all communication in single precision                          F
 GLOBAL| FFTs using library dependent lengths                                  F
 GLOBAL| Grid backend                                                       AUTO
 GLOBAL| Global print level                                                  LOW
 GLOBAL| MPI I/O enabled                                                       T
 GLOBAL| Total number of message passing processes                           144
 GLOBAL| Number of threads for this process                                    1
 GLOBAL| This output is from process                                           0
 GLOBAL| Stack size for threads created by OpenMP (OMP_STACKSIZE)             5M
 GLOBAL| CPU model name                Intel(R) Xeon(R) CPU E5-2690 v3 @ 2.60GHz
 GLOBAL| CPUID                                                              1002

 MEMORY| system memory details [Kb]
 MEMORY|                        rank 0           min           max       average
 MEMORY| MemTotal             65740148      65740148      65740148      65740148
 MEMORY| MemFree              60820084      60806936      61015132      60890733
 MEMORY| Buffers                  9188          7488          9188          8376
 MEMORY| Cached                1865380       1766628       1865380       1832047
 MEMORY| Slab                   218324        214724        218324        215680
 MEMORY| SReclaimable            49164         47860         49164         48179
 MEMORY| MemLikelyFree        62743816      62694224      62837532      62779336


 *******************************************************************************
 *******************************************************************************
 **                                                                           **
 **     #####                         ##              ##                      **
 **    ##   ##            ##          ##              ##                      **
 **   ##     ##                       ##            ######                    **
 **   ##     ##  ##   ##  ##   #####  ##  ##   ####   ##    #####    #####    **
 **   ##     ##  ##   ##  ##  ##      ## ##   ##      ##   ##   ##  ##   ##   **
 **   ##  ## ##  ##   ##  ##  ##      ####     ###    ##   ######   ######    **
 **    ##  ###   ##   ##  ##  ##      ## ##      ##   ##   ##       ##        **
 **     #######   #####   ##   #####  ##  ##  ####    ##    #####   ##        **
 **           ##                                                    ##        **
 **                                                                           **
 **                                                ... make the atoms dance   **
 **                                                                           **
 **            Copyright (C) by CP2K developers group (2000-2024)             **
 **                      J. Chem. Phys. 152, 194103 (2020)                    **
 **                                                                           **
 *******************************************************************************


 TOTAL NUMBERS AND MAXIMUM NUMBERS

  Total number of            - Atomic kinds:                                   6
                             - Atoms:                                        409
                             - Shell sets:                                   409
                             - Shells:                                      3617
                             - Primitive Cartesian functions:               2053
                             - Cartesian basis functions:                  13634
                             - Spherical basis functions:                  11621

  Maximum angular momentum of- Orbital basis functions:                        3
                             - Local part of the GTH pseudopotential:          2
                             - Non-local part of the GTH pseudopotential:      4

  AUX_FIT ADMM-Basis: 
  Total number of            - Shell sets:                                  2799
                             - Shells:                                      2799
                             - Primitive Cartesian functions:               3609
                             - Cartesian basis functions:                   7546
                             - Spherical basis functions:                   6985
                               Maximum angular momentum                        3


 SCF PARAMETERS         Density guess:                                   RESTART
                        --------------------------------------------------------
                        max_scf:                                              10
                        max_scf_history:                                       0
                        max_diis:                                              4
                        --------------------------------------------------------
                        eps_scf:                                        1.00E-06
                        eps_scf_history:                                0.00E+00
                        eps_diis:                                       1.00E-01
                        eps_eigval:                                     1.00E-05
                        --------------------------------------------------------
                        level_shift [a.u.]:                             0.000000
                        --------------------------------------------------------
                        Outer loop SCF in use 
                        No variables optimised in outer loop
                        eps_scf                                         1.00E-06
                        max_scf                                               10
                        No outer loop optimization
                        step_size                                       5.00E-01

  HFX_INFO| Replica ID:                                                        1
  HFX_INFO| FRACTION:                                               0.2500000000
  HFX_INFO| Interaction Potential:                                     TRUNCATED
  HFX_INFO| Cutoff Radius [angstrom]:                               6.0000000000
  HFX_INFO| EPS_SCHWARZ:                                                 1.0E-08
  HFX_INFO| EPS_SCHWARZ_FORCES                                           1.0E-06
  HFX_INFO| EPS_STORAGE_SCALING:                                         1.0E+00
  HFX_INFO| NBINS:                                                            64
  HFX_INFO| BLOCK_SIZE:                                                        5
  HFX_INFO| NUMBER_OF_SHELLS:                                               AUTO
  HFX_INFO| Number of periodic shells considered:                             -1
  HFX_INFO| Number of periodic cells considered:                              27


 Number of electrons:                                                       2056
 Number of occupied orbitals:                                               1028
 Number of molecular orbitals:                                              1028

 Number of orbital functions:                                              11621
 Number of independent orbital functions:                                  11621

 Extrapolation method: initial_guess

 *** WARNING in qs_initial_guess.F:306 :: User requested to restart the   ***
 *** wavefunction from the file named: Replica_15-RESTART.wfn. This file  ***
 *** does not exist. Please check the existence of the file or change     ***
 *** properly the value of the keyword WFN_RESTART_FILE_NAME. Calculation ***
 *** continues using ATOMIC GUESS.                                        ***



 SCF WAVEFUNCTION OPTIMIZATION

  ----------------------------------- OT ---------------------------------------
  Minimizer      : DIIS                : direct inversion
                                         in the iterative subspace
                                         using   7 DIIS vectors
                                         safer DIIS on
  Preconditioner : FULL_SINGLE_INVERSE : inversion of 
                                         H + eS - 2*(Sc)(c^T*H*c+const)(Sc)^T
  Precond_solver : DEFAULT
  stepsize       :    0.08000000                  energy_gap     :    0.08000000
  eps_taylor     :   0.10000E-15                  max_taylor     :             4
  ----------------------------------- OT ---------------------------------------

  Step     Update method      Time    Convergence         Total energy    Change
  ------------------------------------------------------------------------------

  HFX_MEM_INFO| Est. max. program size before HFX [MiB]:                     456

 *** WARNING in hfx_energy_potential.F:587 :: The Kohn Sham matrix is not ***
 *** 100% occupied. This may result in incorrect Hartree-Fock results.    ***
 *** Setting MIN_PAIR_LIST_RADIUS to -1 in the QS section ensures a fully ***
 *** occupied KS matrix. For more information see FAQ:                    ***
 *** https://www.cp2k.org/faq:hfx_eps_warning                             ***

  HFX_MEM_INFO| Number of cart. primitive ERI's calculated:         604392840248
  HFX_MEM_INFO| Number of sph. ERI's calculated:                    319765138951
  HFX_MEM_INFO| Number of sph. ERI's stored in-core:                312744200812
  HFX_MEM_INFO| Number of sph. ERI's stored on disk:                           0
  HFX_MEM_INFO| Number of sph. ERI's calculated on the fly:                    0
  HFX_MEM_INFO| Total memory consumption ERI's RAM [MiB]:                 276153
  HFX_MEM_INFO| Whereof max-vals [MiB]:                                     4880
  HFX_MEM_INFO| Total compression factor ERI's RAM:                         8.64
  HFX_MEM_INFO| Total memory consumption ERI's disk [MiB]:                     0
  HFX_MEM_INFO| Total compression factor ERI's disk:                        0.00
  HFX_MEM_INFO| Size of density/Fock matrix [MiB]:                           152
  HFX_MEM_INFO| Size of buffers [MiB]:                                        79
  HFX_MEM_INFO| Number of periodic image cells considered:                    27
  HFX_MEM_INFO| Est. max. program size after HFX  [MiB]:                    2610

     1 OT DIIS     0.80E-01  230.3     0.01153521     -4958.1592290919 -4.96E+03
     2 OT DIIS     0.80E-01   36.6     0.00712503     -5036.3460311562 -7.82E+01
     3 OT DIIS     0.80E-01   36.5     0.00675544     -5074.2679978078 -3.79E+01
     4 OT DIIS     0.80E-01   36.5     0.00609816     -5094.4879668460 -2.02E+01
     5 OT DIIS     0.80E-01   36.9     0.00358587     -5134.1764960450 -3.97E+01
     6 OT DIIS     0.80E-01   36.9     0.00269141     -5147.8481962961 -1.37E+01
     7 OT DIIS     0.80E-01   36.6     0.00207041     -5156.6675924849 -8.82E+00
     8 OT DIIS     0.80E-01   36.5     0.00137670     -5164.2490127076 -7.58E+00
     9 OT DIIS     0.80E-01   36.5     0.00116282     -5166.8441440860 -2.60E+00
    10 OT DIIS     0.80E-01   36.5     0.00081399     -5169.9473573873 -3.10E+00

  Leaving inner SCF loop after reaching    10 steps.


  Electronic density on regular grids:      -2055.9999999832        0.0000000168
  Core density on regular grids:             2055.9999998392       -0.0000001608
  Total charge density on r-space grids:       -0.0000001440
  Total charge density g-space grids:          -0.0000001440

  Overlap energy of the core charge distribution:               0.00004731667797
  Self energy of the core charge distribution:              -9694.22645242353974
  Core Hamiltonian energy:                                   2875.74598487189905
  Hartree energy:                                            2710.83917453958793
  Exchange-correlation energy:                               -834.86369265607323
  Hartree-Fock Exchange energy:                              -226.56006351998593
  Dispersion energy:                                           -0.88235551588830

  Total energy:                                             -5169.94735738732197

  outer SCF iter =    1 RMS gradient =   0.81E-03 energy =      -5169.9473573873

  ----------------------------------- OT ---------------------------------------
  Minimizer      : DIIS                : direct inversion
                                         in the iterative subspace
                                         using   7 DIIS vectors
                                         safer DIIS on
  Preconditioner : FULL_SINGLE_INVERSE : inversion of 
                                         H + eS - 2*(Sc)(c^T*H*c+const)(Sc)^T
  Precond_solver : DEFAULT
  stepsize       :    0.08000000                  energy_gap     :    0.08000000
  eps_taylor     :   0.10000E-15                  max_taylor     :             4
  ----------------------------------- OT ---------------------------------------

  Step     Update method      Time    Convergence         Total energy    Change
  ------------------------------------------------------------------------------
     1 OT DIIS     0.80E-01   76.0     0.00133159     -5171.1509062609 -1.20E+00
     2 OT DIIS     0.80E-01   36.9     0.00114686     -5172.7154643841 -1.56E+00
     3 OT DIIS     0.80E-01   36.5     0.00068693     -5174.7008551006 -1.99E+00
     4 OT DIIS     0.80E-01   36.6     0.00053581     -5175.1889892387 -4.88E-01
     5 OT DIIS     0.80E-01   36.5     0.00040962     -5175.3855428201 -1.97E-01
     6 OT DIIS     0.80E-01   36.6     0.00022082     -5175.5241620804 -1.39E-01
     7 OT DIIS     0.80E-01   36.6     0.00013908     -5175.5586723978 -3.45E-02
     8 OT DIIS     0.80E-01   36.7     0.00010955     -5175.5678663618 -9.19E-03
     9 OT DIIS     0.80E-01   36.6     0.00006521     -5175.5804962892 -1.26E-02
    10 OT DIIS     0.80E-01   36.5     0.00005200     -5175.5839724664 -3.48E-03

  Leaving inner SCF loop after reaching    10 steps.


  Electronic density on regular grids:      -2055.9999999832        0.0000000168
  Core density on regular grids:             2055.9999998392       -0.0000001608
  Total charge density on r-space grids:       -0.0000001440
  Total charge density g-space grids:          -0.0000001440

  Overlap energy of the core charge distribution:               0.00004731667797
  Self energy of the core charge distribution:              -9694.22645242353974
  Core Hamiltonian energy:                                   2871.73036469132694
  Hartree energy:                                            2711.03572923896627
  Exchange-correlation energy:                               -835.12902632011242
  Hartree-Fock Exchange energy:                              -228.11227945378454
  Dispersion energy:                                           -0.88235551588830

  Total energy:                                             -5175.58397246635195

  outer SCF iter =    2 RMS gradient =   0.52E-04 energy =      -5175.5839724664

  ----------------------------------- OT ---------------------------------------
  Minimizer      : DIIS                : direct inversion
                                         in the iterative subspace
                                         using   7 DIIS vectors
                                         safer DIIS on
  Preconditioner : FULL_SINGLE_INVERSE : inversion of 
                                         H + eS - 2*(Sc)(c^T*H*c+const)(Sc)^T
  Precond_solver : DEFAULT
  stepsize       :    0.08000000                  energy_gap     :    0.08000000
  eps_taylor     :   0.10000E-15                  max_taylor     :             4
  ----------------------------------- OT ---------------------------------------

  Step     Update method      Time    Convergence         Total energy    Change
  ------------------------------------------------------------------------------
     1 OT DIIS     0.80E-01   76.0     0.00004961     -5175.5855772121 -1.60E-03
     2 OT DIIS     0.80E-01   36.7     0.00003620     -5175.5875069409 -1.93E-03
     3 OT DIIS     0.80E-01   36.4     0.00002490     -5175.5888921467 -1.39E-03
     4 OT DIIS     0.80E-01   36.3     0.00000568     -5175.5898847269 -9.93E-04
     5 OT DIIS     0.80E-01   36.5     0.00000365     -5175.5899147776 -3.01E-05
     6 OT DIIS     0.80E-01   36.5     0.00000170     -5175.5899339393 -1.92E-05
     7 OT DIIS     0.80E-01   36.5     0.00000079     -5175.5899377222 -3.78E-06

  *** SCF run converged in     7 steps ***


  Electronic density on regular grids:      -2055.9999999852        0.0000000148
  Core density on regular grids:             2055.9999998392       -0.0000001608
  Total charge density on r-space grids:       -0.0000001459
  Total charge density g-space grids:          -0.0000001459

  Overlap energy of the core charge distribution:               0.00004731667797
  Self energy of the core charge distribution:              -9694.22645242353974
  Core Hamiltonian energy:                                   2871.69916111561588
  Hartree energy:                                            2711.05848887225056
  Exchange-correlation energy:                               -835.12544240285195
  Hartree-Fock Exchange energy:                              -228.11338468447173
  Dispersion energy:                                           -0.88235551588830

  Total energy:                                             -5175.58993772220674

  outer SCF iter =    3 RMS gradient =   0.79E-06 energy =      -5175.5899377222
  outer SCF loop converged in   3 iterations or   27 steps


 ENERGY| Total FORCE_EVAL ( QS ) energy [a.u.]:            -5175.589937722206741

 -------------------------------------------------------------------------------
 -                                                                             -
 -                                DBCSR STATISTICS                             -
 -                                                                             -
 -------------------------------------------------------------------------------
 COUNTER                                    TOTAL       BLAS       SMM       ACC
 flops    14 x     4 x     4               129024       0.0%    100.0%      0.0%     
 flops     4 x     4 x   976               187392       0.0%    100.0%      0.0%     
 flops    41 x     4 x     4               314880       0.0%    100.0%      0.0%     
 flops     4 x     4 x   974               374016       0.0%    100.0%      0.0%     
 flops     4 x     4 x   962               461760       0.0%    100.0%      0.0%     
 flops    29 x     4 x     4              1787328       0.0%    100.0%      0.0%     
 flops    14 x    32 x     4             16515072       0.0%    100.0%      0.0%     
 flops    14 x     4 x    32             16515072       0.0%    100.0%      0.0%     
 flops    32 x     4 x   976             23986176       0.0%    100.0%      0.0%     
 flops     4 x    32 x   976             23986176       0.0%    100.0%      0.0%     
 flops    41 x    32 x     4             40304640       0.0%    100.0%      0.0%     
 flops    41 x     4 x    32             40304640       0.0%    100.0%      0.0%     
 flops    32 x     4 x   974             47874048       0.0%    100.0%      0.0%     
 flops     4 x    32 x   974             47874048       0.0%    100.0%      0.0%     
 flops    32 x     4 x   962             59105280       0.0%    100.0%      0.0%     
 flops     4 x    32 x   962             59105280       0.0%    100.0%      0.0%     
 flops     6 x     6 x    68             66624768       0.0%    100.0%      0.0%     
 flops    31 x     6 x    68             98350848       0.0%    100.0%      0.0%     
 flops    14 x     4 x    14            102359040       0.0%    100.0%      0.0%     
 flops    68 x    68 x    68            129545984       0.0%    100.0%      0.0%     
 flops     6 x     6 x    64            188116992       0.0%    100.0%      0.0%     
 flops    29 x    32 x     4            228777984       0.0%    100.0%      0.0%     
 flops    29 x     4 x    32            228777984       0.0%    100.0%      0.0%     
 flops    31 x     6 x    64            277696512       0.0%    100.0%      0.0%     
 flops    41 x    14 x    68            359718912       0.0%    100.0%      0.0%     
 flops    64 x    68 x    68            365776896       0.0%    100.0%      0.0%     
 flops    68 x    64 x    68            365776896       0.0%    100.0%      0.0%     
 flops    68 x    68 x    64            365776896       0.0%    100.0%      0.0%     
 flops    14 x    14 x    68            470211840       0.0%    100.0%      0.0%     
 flops    41 x     4 x    14            479625216       0.0%    100.0%      0.0%     
 flops    14 x     4 x    41            479625216       0.0%    100.0%      0.0%     
 flops     6 x    31 x    68            688455936       0.0%    100.0%      0.0%     
 flops     6 x     6 x    96            752467968       0.0%    100.0%      0.0%     
 flops     6 x    17 x    68            841974912       0.0%    100.0%      0.0%     
 flops    17 x     6 x    68           1013516064       0.0%    100.0%      0.0%     
 flops    41 x    14 x    64           1015676928       0.0%    100.0%      0.0%     
 flops    64 x    64 x    68           1032781824       0.0%    100.0%      0.0%     
 flops    64 x    68 x    64           1032781824       0.0%    100.0%      0.0%     
 flops    68 x    64 x    64           1032781824       0.0%    100.0%      0.0%     
 flops    31 x     6 x    96           1110786048       0.0%    100.0%      0.0%     
 flops   963 x    68 x    68           1148851296       0.0%    100.0%      0.0%     
 flops    14 x    14 x    64           1327656960       0.0%    100.0%      0.0%     
 flops    41 x     4 x    41           1455826688       0.0%    100.0%      0.0%     
 flops    68 x    68 x    96           1463107584       0.0%    100.0%      0.0%     
 flops    68 x    96 x    68           1463107584       0.0%    100.0%      0.0%     
 flops    96 x    68 x    68           1463107584       0.0%    100.0%      0.0%     
 flops    14 x     4 x    29           1586907840       0.0%    100.0%      0.0%     
 flops    29 x     4 x    14           1586907840       0.0%    100.0%      0.0%     
 flops    68 x    68 x   976           1895470080       0.0%    100.0%      0.0%     
 flops     6 x    31 x    64           1943875584       0.0%    100.0%      0.0%     
 flops   976 x    68 x    68           2328720384       0.0%    100.0%      0.0%     
 flops     6 x    17 x    64           2377340928       0.0%    100.0%      0.0%     
 flops    31 x    31 x    68           2385463392       0.0%    100.0%      0.0%     
 flops    17 x     6 x    64           2861692416       0.0%    100.0%      0.0%     
 flops    64 x    64 x    64           2916089856       0.0%    100.0%      0.0%     
 flops   963 x    64 x    68           3243815424       0.0%    100.0%      0.0%     
 flops   963 x    68 x    64           3243815424       0.0%    100.0%      0.0%     
 flops    14 x    41 x    68           3447306240       0.0%    100.0%      0.0%     
 flops    68 x    68 x   974           3783171840       0.0%    100.0%      0.0%     
 flops    41 x    14 x    96           4062707712       0.0%    100.0%      0.0%     
 flops    64 x    68 x    96           4131127296       0.0%    100.0%      0.0%     
 flops    64 x    96 x    68           4131127296       0.0%    100.0%      0.0%     
 flops    68 x    64 x    96           4131127296       0.0%    100.0%      0.0%     
 flops    68 x    96 x    64           4131127296       0.0%    100.0%      0.0%     
 flops    96 x    64 x    68           4131127296       0.0%    100.0%      0.0%     
 flops    96 x    68 x    64           4131127296       0.0%    100.0%      0.0%     
 flops    14 x    32 x    32           4359979008       0.0%    100.0%      0.0%     
 flops   974 x    68 x    68           4647896832       0.0%    100.0%      0.0%     
 flops    68 x    68 x   962           4670702400       0.0%    100.0%      0.0%     
 flops    14 x    14 x    96           5310627840       0.0%    100.0%      0.0%     
 flops    64 x    68 x   976           5351915520       0.0%    100.0%      0.0%     
 flops    68 x    64 x   976           5351915520       0.0%    100.0%      0.0%     
 flops   962 x    68 x    68           5738291520       0.0%    100.0%      0.0%     
 flops    41 x    41 x    68           5785813728       0.0%    100.0%      0.0%     
 flops    14 x    29 x    68           5861288832       0.0%    100.0%      0.0%     
 flops    32 x    32 x   976           6332350464       0.0%    100.0%      0.0%     
 flops   976 x    64 x    68           6575210496       0.0%    100.0%      0.0%     
 flops   976 x    68 x    64           6575210496       0.0%    100.0%      0.0%     
 flops    17 x    31 x    68           6600776184       0.0%    100.0%      0.0%     
 flops    31 x    31 x    64           6735426048       0.0%    100.0%      0.0%     
 flops   963 x    68 x   976           7669486080       0.0%    100.0%      0.0%     
 flops    41 x     4 x    29           7736566176       0.0%    100.0%      0.0%     
 flops    29 x     4 x    41           7736566176       0.0%    100.0%      0.0%     
 flops     6 x    31 x    96           7775502336       0.0%    100.0%      0.0%     
 flops    29 x    14 x    68           7799370432       0.0%    100.0%      0.0%     
 flops    31 x    17 x    68           8822321496       0.0%    100.0%      0.0%     
 flops   963 x    64 x    64           9159008256       0.0%    100.0%      0.0%     
 flops     6 x    17 x    96           9509363712       0.0%    100.0%      0.0%     
 flops    14 x    41 x    64           9733570560       0.0%    100.0%      0.0%     
 flops    41 x    32 x    32          10640424960       0.0%    100.0%      0.0%     
 flops    64 x    68 x   974          10681896960       0.0%    100.0%      0.0%     
 flops    68 x    64 x   974          10681896960       0.0%    100.0%      0.0%     
 flops    17 x     6 x    96          11446769664       0.0%    100.0%      0.0%     
 flops    64 x    64 x    96          11664359424       0.0%    100.0%      0.0%     
 flops    64 x    96 x    64          11664359424       0.0%    100.0%      0.0%     
 flops    96 x    64 x    64          11664359424       0.0%    100.0%      0.0%     
 flops    32 x    32 x   974          12638748672       0.0%    100.0%      0.0%     
 flops   963 x    68 x    96          12975261696       0.0%    100.0%      0.0%     
 flops   963 x    96 x    68          12975261696       0.0%    100.0%      0.0%     
 flops   974 x    64 x    68          13123473408       0.0%    100.0%      0.0%     
 flops   974 x    68 x    64          13123473408       0.0%    100.0%      0.0%     
 flops    64 x    68 x   962          13187865600       0.0%    100.0%      0.0%     
 flops    68 x    64 x   962          13187865600       0.0%    100.0%      0.0%     
 flops    64 x    64 x   976          15111290880       0.0%    100.0%      0.0%     
 flops   963 x    68 x   974          15307539840       0.0%    100.0%      0.0%     
 flops   976 x    68 x   976          15546040320       0.0%    100.0%      0.0%     
 flops    32 x    32 x   962          15603793920       0.0%    100.0%      0.0%     
 flops    17 x    17 x    68          16061383080       0.0%    100.0%      0.0%     
 flops   962 x    64 x    68          16202234880       0.0%    100.0%      0.0%     
 flops   962 x    68 x    64          16202234880       0.0%    100.0%      0.0%     
 flops    41 x    41 x    64          16336415232       0.0%    100.0%      0.0%     
 flops    96 x    96 x    68          16524509184       0.0%    100.0%      0.0%     
 flops    68 x    96 x    96          16524509184       0.0%    100.0%      0.0%     
 flops    96 x    68 x    96          16524509184       0.0%    100.0%      0.0%     
 flops    14 x    29 x    64          16549521408       0.0%    100.0%      0.0%     
 flops   976 x    64 x    64          18565300224       0.0%    100.0%      0.0%     
 flops    17 x    31 x    64          18637485696       0.0%    100.0%      0.0%     
 flops   963 x    68 x   962          18898682400       0.0%    100.0%      0.0%     
 flops    68 x    96 x   976          21407662080       0.0%    100.0%      0.0%     
 flops    96 x    68 x   976          21407662080       0.0%    100.0%      0.0%     
 flops   963 x    64 x   976          21655019520       0.0%    100.0%      0.0%     
 flops    29 x    14 x    64          22021751808       0.0%    100.0%      0.0%     
 flops    31 x    17 x    64          24910084224       0.0%    100.0%      0.0%     
 flops    29 x    41 x    68          25692825152       0.0%    100.0%      0.0%     
 flops    14 x    32 x    14          26203914240       0.0%    100.0%      0.0%     
 flops   976 x    68 x    96          26300841984       0.0%    100.0%      0.0%     
 flops   976 x    96 x    68          26300841984       0.0%    100.0%      0.0%     
 flops    31 x    31 x    96          26941704192       0.0%    100.0%      0.0%     
 flops    29 x     4 x    29          27761800224       0.0%    100.0%      0.0%     
 flops    64 x    64 x   974          30160650240       0.0%    100.0%      0.0%     
 flops   976 x    68 x   974          31028367360       0.0%    100.0%      0.0%     
 flops   974 x    68 x   976          31028367360       0.0%    100.0%      0.0%     
 flops    41 x    29 x    68          34691976160       0.0%    100.0%      0.0%     
 flops   963 x    64 x    96          36636033024       0.0%    100.0%      0.0%     
 flops   963 x    96 x    64          36636033024       0.0%    100.0%      0.0%     
 flops   974 x    64 x    64          37054513152       0.0%    100.0%      0.0%     
 flops    64 x    64 x   962          37236326400       0.0%    100.0%      0.0%     
 flops   976 x    68 x   962          38307609600       0.0%    100.0%      0.0%     
 flops   962 x    68 x   976          38307609600       0.0%    100.0%      0.0%     
 flops    14 x    41 x    96          38934282240       0.0%    100.0%      0.0%     
 flops    68 x    96 x   974          42727587840       0.0%    100.0%      0.0%     
 flops    96 x    68 x   974          42727587840       0.0%    100.0%      0.0%     
 flops   963 x    64 x   974          43221288960       0.0%    100.0%      0.0%     
 flops   976 x    64 x   976          43894702080       0.0%    100.0%      0.0%     
 flops    17 x    17 x    64          45349787520       0.0%    100.0%      0.0%     
 flops   962 x    64 x    64          45747486720       0.0%    100.0%      0.0%     
 flops    96 x    96 x    64          46657437696       0.0%    100.0%      0.0%     
 flops    64 x    96 x    96          46657437696       0.0%    100.0%      0.0%     
 flops    96 x    64 x    96          46657437696       0.0%    100.0%      0.0%     
 flops   974 x    96 x    68          52493893632       0.0%    100.0%      0.0%     
 flops   974 x    68 x    96          52493893632       0.0%    100.0%      0.0%     
 flops    68 x    96 x   962          52751462400       0.0%    100.0%      0.0%     
 flops    96 x    68 x   962          52751462400       0.0%    100.0%      0.0%     
 flops   963 x    64 x   962          53360985600       0.0%    100.0%      0.0%     
 flops    29 x    32 x    32          60397387776       0.0%    100.0%      0.0%     
 flops    64 x    96 x   976          60445163520       0.0%    100.0%      0.0%     
 flops    96 x    64 x   976          60445163520       0.0%    100.0%      0.0%     
 flops   974 x    68 x   974          61929569280       0.0%    100.0%      0.0%     
 flops   962 x    68 x    96          64808939520       0.0%    100.0%      0.0%     
 flops   962 x    96 x    68          64808939520       0.0%    100.0%      0.0%     
 flops    41 x    41 x    96          65345660928       0.0%    100.0%      0.0%     
 flops    14 x    29 x    96          66198085632       0.0%    100.0%      0.0%     
 flops    29 x    41 x    64          72544447488       0.0%    100.0%      0.0%     
 flops   976 x    64 x    96          74261200896       0.0%    100.0%      0.0%     
 flops   976 x    96 x    64          74261200896       0.0%    100.0%      0.0%     
 flops    17 x    31 x    96          74549942784       0.0%    100.0%      0.0%     
 flops   962 x    68 x   974          76458220800       0.0%    100.0%      0.0%     
 flops   974 x    68 x   962          76458220800       0.0%    100.0%      0.0%     
 flops   963 x    96 x   976          86620078080       0.0%    100.0%      0.0%     
 flops   976 x    64 x   974          87609507840       0.0%    100.0%      0.0%     
 flops   974 x    64 x   976          87609507840       0.0%    100.0%      0.0%     
 flops    29 x    14 x    96          88087007232       0.0%    100.0%      0.0%     
 flops   962 x    68 x   962          94395288000       0.0%    100.0%      0.0%     
 flops    41 x    29 x    64          97953815040       0.0%    100.0%      0.0%     
 flops    31 x    17 x    96          99640336896       0.0%    100.0%      0.0%     
 flops   976 x    64 x   962         108162662400       0.0%    100.0%      0.0%     
 flops   962 x    64 x   976         108162662400       0.0%    100.0%      0.0%     
 flops    29 x    29 x    68         115413504696       0.0%    100.0%      0.0%     
 flops    64 x    96 x   974         120642600960       0.0%    100.0%      0.0%     
 flops    96 x    64 x   974         120642600960       0.0%    100.0%      0.0%     
 flops    41 x    32 x    14         122784055296       0.0%    100.0%      0.0%     
 flops    14 x    32 x    41         122784055296       0.0%    100.0%      0.0%     
 flops   963 x    96 x    96         146544132096       0.0%    100.0%      0.0%     
 flops   974 x    96 x    64         148218052608       0.0%    100.0%      0.0%     
 flops   974 x    64 x    96         148218052608       0.0%    100.0%      0.0%     
 flops    64 x    96 x   962         148945305600       0.0%    100.0%      0.0%     
 flops    96 x    64 x   962         148945305600       0.0%    100.0%      0.0%     
 flops   963 x    96 x   974         172885155840       0.0%    100.0%      0.0%     
 flops   974 x    64 x   974         174859960320       0.0%    100.0%      0.0%     
 flops   976 x    96 x   976         175578808320       0.0%    100.0%      0.0%     
 flops    17 x    17 x    96         181399150080       0.0%    100.0%      0.0%     
 flops   962 x    64 x    96         182989946880       0.0%    100.0%      0.0%     
 flops   962 x    96 x    64         182989946880       0.0%    100.0%      0.0%     
 flops    96 x    96 x    96         186629750784       0.0%    100.0%      0.0%     
 flops   963 x    96 x   962         213443942400       0.0%    100.0%      0.0%     
 flops   962 x    64 x   974         215882035200       0.0%    100.0%      0.0%     
 flops   974 x    64 x   962         215882035200       0.0%    100.0%      0.0%     
 flops    96 x    96 x   976         241780654080       0.0%    100.0%      0.0%     
 flops   962 x    64 x   962         266527872000       0.0%    100.0%      0.0%     
 flops    29 x    41 x    96         290177789952       0.0%    100.0%      0.0%     
 flops   976 x    96 x    96         297044803584       0.0%    100.0%      0.0%     
 flops    29 x    29 x    64         325873425024       0.0%    100.0%      0.0%     
 flops   974 x    96 x   976         350438031360       0.0%    100.0%      0.0%     
 flops   976 x    96 x   974         350438031360       0.0%    100.0%      0.0%     
 flops    41 x    32 x    41         372691632128       0.0%    100.0%      0.0%     
 flops    41 x    29 x    96         391815260160       0.0%    100.0%      0.0%     
 flops    14 x    32 x    29         406248407040       0.0%    100.0%      0.0%     
 flops    29 x    32 x    14         406248407040       0.0%    100.0%      0.0%     
 flops   976 x    96 x   962         432650649600       0.0%    100.0%      0.0%     
 flops   962 x    96 x   976         432650649600       0.0%    100.0%      0.0%     
 flops    96 x    96 x   974         482570403840       0.0%    100.0%      0.0%     
 flops   974 x    96 x    96         592872210432       0.0%    100.0%      0.0%     
 flops    96 x    96 x   962         595781222400       0.0%    100.0%      0.0%     
 flops   974 x    96 x   974         699439841280       0.0%    100.0%      0.0%     
 flops   962 x    96 x    96         731959787520       0.0%    100.0%      0.0%     
 flops   974 x    96 x   962         863528140800       0.0%    100.0%      0.0%     
 flops   962 x    96 x   974         863528140800       0.0%    100.0%      0.0%     
 flops   962 x    96 x   962        1066111488000       0.0%    100.0%      0.0%     
 flops    29 x    29 x    96        1303493700096       0.0%    100.0%      0.0%     
 flops    41 x    32 x    29        1980560941056       0.0%    100.0%      0.0%     
 flops    29 x    32 x    41        1980560941056       0.0%    100.0%      0.0%     
 flops    29 x    32 x    29        7107020857344       0.0%    100.0%      0.0%     
 flops inhomo. stacks                919542991104     100.0%      0.0%      0.0%
 flops total                        30.794475E+12       3.0%     97.0%      0.0%
 flops max/rank                    246.609604E+09       3.0%     97.0%      0.0%
 matmuls inhomo. stacks                     21123     100.0%      0.0%      0.0%
 matmuls total                          267430830       0.0%    100.0%      0.0%
 number of processed stacks               2890701       0.7%     99.3%      0.0%
 average stack size                                     1.1      93.1       0.0
 marketing flops                    45.016114E+12
 -------------------------------------------------------------------------------
 # multiplications                            608
 max memory usage/rank               2.670150E+09
 # max total images/rank                        1
 # max 3D layers                                1
 # MPI messages exchanged                 1926144
 MPI messages size (bytes):
  total size                         1.516637E+12
  min size                           0.000000E+00
  max size                           7.620608E+06
  average size                     787.395438E+03
 MPI breakdown and total messages size (bytes):
             size <=      128               13860                        0
       128 < size <=     8192                   0                        0
      8192 < size <=    32768               54252               1773408384
     32768 < size <=   131072              807840              48825610240
    131072 < size <=  4194304              894960             571327291744
   4194304 < size <= 16777216              155232             894713800816
  16777216 < size                               0                        0
 -------------------------------------------------------------------------------
 -                                                                             -
 -                      DBCSR MESSAGE PASSING PERFORMANCE                      -
 -                                                                             -
 -------------------------------------------------------------------------------
 ROUTINE             CALLS      AVE VOLUME [Bytes]
 MP_Bcast              223                     12.
 MP_Allreduce         3683                     31.
 MP_Alltoall          3959                 316284.
 MP_ISend            29172                 372294.
 MP_IRecv            29172                 369752.
 -------------------------------------------------------------------------------

 -------------------------------------------------------------------------------
 -                                                                             -
 -                                DBM STATISTICS                               -
 -                                                                             -
 -------------------------------------------------------------------------------
    M  x    N  x    K                                          COUNT     PERCENT
 -------------------------------------------------------------------------------

 -------------------------------------------------------------------------------
 -                                                                             -
 -                                GRID STATISTICS                              -
 -                                                                             -
 -------------------------------------------------------------------------------
 LP    KERNEL             BACKEND                              COUNT     PERCENT
 6     collocate ortho    CPU                                7400520      16.23%
 6     integrate ortho    CPU                                7136370      15.65%
 1     collocate ortho    CPU                                5118849      11.23%
 1     integrate ortho    CPU                                5118849      11.23%
 2     collocate ortho    CPU                                4180680       9.17%
 2     integrate ortho    CPU                                4180680       9.17%
 0     collocate ortho    CPU                                2546343       5.58%
 0     integrate ortho    CPU                                2546343       5.58%
 3     collocate ortho    CPU                                1779759       3.90%
 3     integrate ortho    CPU                                1779759       3.90%
 5     collocate ortho    CPU                                1392915       3.05%
 5     integrate ortho    CPU                                1345491       2.95%
 4     collocate ortho    CPU                                 508242       1.11%
 4     integrate ortho    CPU                                 505170       1.11%
 0     collocate general  CPU                                  58896       0.13%
 -------------------------------------------------------------------------------

 MEMORY| Estimated peak process memory [MiB]                                2699

 -------------------------------------------------------------------------------
 -                                                                             -
 -                         MESSAGE PASSING PERFORMANCE                         -
 -                                                                             -
 -------------------------------------------------------------------------------

 ROUTINE             CALLS      AVE VOLUME [Bytes]
 MP_Group                4
 MP_Bcast             3774                3973898.
 MP_Allreduce         8537                   2626.
 MP_Sync               162
 MP_Alltoall          1254                6193736.
 MP_SendRecv         15730                  44208.
 MP_ISendRecv        23452                 261870.
 MP_Wait             33526
 MP_comm_split          20
 MP_ISend             9198                 272644.
 MP_IRecv             9198                 272599.
 -------------------------------------------------------------------------------


 -------------------------------------------------------------------------------
 -                                                                             -
 -                           R E F E R E N C E S                               -
 -                                                                             -
 -------------------------------------------------------------------------------
 
 CP2K version 2024.2 (Development Version), the CP2K developers group (2024).
 CP2K is freely available from https://www.cp2k.org/ .
 
 T. D. Kuehne, M. Iannuzzi, M. Del Ben, V. V. Rybkin, P. Seewald, F. Stein, T. 
 Laino, R. Z. Khaliullin, O. Schuett, F. Schiffmann, D. Golze, J. Wilhelm, S. 
 Chulkov, M. H. Bani-Hashemian, V. Weber, U. Borstnik, M. Taillefumier, A. S. 
 Jakobovits, A. Lazzaro, H. Pabst, T. Mueller, R. Schade, M. Guidon, S. 
 Andermatt, N. Holmberg, G. K. Schenter, A. Hehn, A. Bussy, F. Belleflamme, G. 
 Tabacchi, A. Gloess, M. Lass, I. Bethune, C. J. Mundy, C. Plessl, M. Watkins, 
 J. VandeVondele, M. Krack, J. Hutter.
 J. Chem. Phys. 152, 194103 (2020).
 CP2K: An electronic structure and molecular dynamics software package - 
 Quickstep: Efficient and accurate electronic structure calculations.
 https://doi.org/10.1063/5.0007045

 S. Lehtola, C. Steigemann, M. J. T. Oliveira, M. A. L. Marques.
 SoftwareX 7, 1-5 (2018).
 Recent developments in libxc - A comprehensive library of functionals for 
 density functional theory.
 https://doi.org/10.1016/j.softx.2017.11.002

 L. Goerigk, A. Hansen, C. Bauer, S. Ehrlich, A. Najibi, S. Grimme.
 Phys. Chem. Chem. Phys. 19, 32184-32215 (2017).
 A look at the density functional theory zoo with the advanced GMTKN55 database 
 for general main group thermochemistry, kinetics and noncovalent interactions.
 https://doi.org/10.1039/C7CP04913G

 O. Schuett, P. Messmer, J. Hutter, J. VandeVondele.
 Electronic Structure Calculations on Graphics Processing Units, 173-190 (2016).
 GPU-Accelerated Sparse Matrix-Matrix Multiplication for Linear Scaling Density 
 Functional Theory.
 https://doi.org/10.1002/9781118670712.ch8

 A. Heinecke, G. Henry, M. Hutchinson, H. Pabst.
 Proceedings of Intl. Supercomputing Conference, 981-991 (2016).
 LIBXSMM: Accelerating Small Matrix Multiplications by Runtime Code Generation.
 https://doi.org/10.1109/SC.2016.83

 J. Hutter, M. Iannuzzi, F. Schiffmann, J. VandeVondele.
 WIREs Comput Mol Sci. 4, 15-25 (2014).
 CP2K: atomistic simulations of condensed matter systems.
 https://doi.org/10.1002/wcms.1159

 U. Borstnik, J. VandeVondele, V. Weber, J. Hutter.
 Parallel Comput. 40, 47-58 (2014).
 Sparse matrix multiplication: The distributed block-compressed sparse row 
 library.
 https://doi.org/10.1016/j.parco.2014.03.012

 M. A. L. Marques, M. J. T. Oliveira, T. Burnus.
 Comput. Phys. Commun. 183, 2272-2281 (2012).
 LIBXC: A library of exchange and correlation functionals for density functional 
 theory.
 https://doi.org/10.1016/j.cpc.2012.05.007

 S. Grimme, S. Ehrlich, L. Goerigk.
 J. Comput. Chem. 32, 1456 (2011).
 Effect of the damping function in dispersion corrected density functional 
 theory.
 https://doi.org/10.1002/jcc.21759

 S. Grimme, J. Antony, S. Ehrlich, H. Krieg.
 J. Chem. Phys. 132, 154104 (2010).
 A consistent and accurate ab initio parametrization of density functional 
 dispersion correction (DFT-D) for the 94 elements H-Pu.
 https://doi.org/10.1063/1.3382344

 M. Guidon, J. Hutter, J. VandeVondele.
 J. Chem. Theory Comput. 6, 2348-2364 (2010).
 Auxiliary Density Matrix Methods for Hartree-Fock Exchange Calculations.
 https://doi.org/10.1021/ct1002225

 M. Guidon, J. Hutter, J. VandeVondele.
 J. Chem. Theory Comput. 5, 3010-3021 (2009).
 Robust Periodic Hartree-Fock Exchange for Large-Scale Simulations Using 
 Gaussian Basis Sets.
 https://doi.org/10.1021/ct900494g

 M. Guidon, F. Schiffmann, J. Hutter, J. VandeVondele.
 J. Chem. Phys. 128, 214104 (2008).
 Ab initio molecular dynamics using hybrid density functionals.
 https://doi.org/10.1063/1.2931945

 J. VandeVondele, J. Hutter.
 J. Chem. Phys. 127, 114105 (2007).
 Gaussian basis sets for accurate calculations on molecular systems in gas and 
 condensed phases.
 https://doi.org/10.1063/1.2770708

 J. VandeVondele, M. Krack, F. Mohamed, M. Parrinello, T. Chassaing, J. Hutter.
 Comput. Phys. Commun. 167, 103-128 (2005).
 QUICKSTEP: Fast and accurate density functional calculations using a mixed 
 Gaussian and plane waves approach.
 https://doi.org/10.1016/j.cpc.2004.12.014

 M. Krack.
 Theor. Chem. Acc. 114, 145-152 (2005).
 Pseudopotentials for H to Kr optimized for gradient-corrected 
 exchange-correlation functionals.
 https://doi.org/10.1007/s00214-005-0655-y

 M. Frigo, S. G. Johnson.
 Proc. IEEE 93, 216-231 (2005).
 The design and implementation of FFTW3.
 https://doi.org/10.1109/JPROC.2004.840301

 J. VandeVondele, J. Hutter.
 J. Chem. Phys. 118, 4365-4369 (2003).
 An efficient orbital transformation method for electronic structure 
 calculations.
 https://doi.org/10.1063/1.1543154

 C. Hartwigsen, S. Goedecker, J. Hutter.
 Phys. Rev. B 58, 3641-3662 (1998).
 Relativistic separable dual-space Gaussian pseudopotentials from H to Rn.
 https://doi.org/10.1103/PhysRevB.58.3641

 G. Lippert, J. Hutter, M. Parrinello.
 Mol. Phys. 92, 477-487 (1997).
 A hybrid Gaussian and plane wave density functional scheme.
 https://doi.org/10.1080/002689797170220

 S. Goedecker, M. Teter, J. Hutter.
 Phys. Rev. B 54, 1703-1710 (1996).
 Separable dual-space Gaussian pseudopotentials.
 https://doi.org/10.1103/PhysRevB.54.1703

 J. P. Perdew, K. Burke, M. Ernzerhof.
 Phys. Rev. Lett. 77, 3865-3868 (1996).
 Generalized gradient approximation made simple.
 https://doi.org/10.1103/PhysRevLett.77.3865


 -------------------------------------------------------------------------------
 -                                                                             -
 -                                T I M I N G                                  -
 -                                                                             -
 -------------------------------------------------------------------------------
 SUBROUTINE                       CALLS  ASD         SELF TIME        TOTAL TIME
                                MAXIMUM       AVERAGE  MAXIMUM  AVERAGE  MAXIMUM
 CP2K                                 1  1.0    0.073    0.092 1190.767 1190.773
 qs_energies                          1  2.0    0.005    0.008 1189.041 1189.048
 scf_env_do_scf                       1  3.0    0.000    0.000 1187.534 1187.541
 qs_ks_update_qs_env                 30  5.0    0.000    0.000 1151.712 1151.718
 rebuild_ks_matrix                   27  6.0    0.000    0.000 1151.640 1151.646
 qs_ks_build_kohn_sham_matrix        27  7.0    0.004    0.005 1151.640 1151.646
 hfx_ks_matrix                       27  8.0    0.002    0.002 1064.269 1064.282
 integrate_four_center               27  9.0    1.339    1.824 1064.186 1064.195
 integrate_four_center_main          27 10.0    0.031    0.033  995.745 1027.492
 integrate_four_center_bin         1728 11.0  995.714 1027.461  995.714 1027.461
 scf_env_do_scf_inner_loop           27  4.0    0.001    0.007  881.101  881.365
 init_scf_loop                        3  4.0    0.000    0.000  306.297  306.310
 mp_sync                            162 11.0   35.115   63.279   35.115   63.279
 parallel_gemm_fm                   113 10.2    0.000    0.000   30.038   30.297
 parallel_gemm_fm_gemm              113 11.2    0.000    0.000   30.038   30.296
 cp_fm_gemm                         113 12.2   30.038   30.296   30.038   30.296
 admm_mo_merge_ks_matrix             27  8.0    0.000    0.000   28.389   28.409
 merge_ks_matrix_none                27  9.0    0.001    0.002   28.388   28.409
 qs_vxc_create                       54  8.0    0.001    0.001   27.147   27.147
 xc_vxc_pw_create                    54  9.0    0.137    0.176   27.147   27.147
 fft_wrap_pw1pw2                    897 10.8    0.019    0.026   23.447   24.725
 -------------------------------------------------------------------------------

 The number of warnings for this run is : 2
 
 -------------------------------------------------------------------------------
  **** **** ******  **  PROGRAM ENDED AT                 2024-09-13 01:05:38.128
 ***** ** ***  *** **   PROGRAM RAN ON                                  nid06508
 **    ****   ******    PROGRAM RAN BY                                  bsertcan
 ***** **    ** ** **   PROGRAM PROCESS ID                                 10861
  **** **  *******  **  PROGRAM STOPPED IN /scratch/snx3000/bsertcan/MFU_sp/br/x
                                           e/rep15
