 DBCSR| CPU Multiplication driver                                           XSMM (U)
 DBCSR| Multrec recursion limit                                              512 (U)
 DBCSR| Multiplication stack size                                           1000 (D)
 DBCSR| Maximum elements for images                                    UNLIMITED (U)
 DBCSR| Multiplicative factor virtual images                                   1 (U)
 DBCSR| Use multiplication densification                                       T (D)
 DBCSR| Multiplication size stacks                                             3 (U)
 DBCSR| Use memory pool for CPU allocation                                     F (U)
 DBCSR| Number of 3D layers                                               SINGLE (U)
 DBCSR| Use MPI memory allocation                                              F (U)
 DBCSR| Use RMA algorithm                                                      F (U)
 DBCSR| Use Communication thread                                               T (U)
 DBCSR| Communication thread load                                             87 (D)
 DBCSR| MPI: My process id                                                     0
 DBCSR| MPI: Number of processes                                             144
 DBCSR| OMP: Current number of threads                                         1
 DBCSR| OMP: Max number of threads                                             1
 DBCSR| Split modifier for TAS multiplication algorithm                  1.0E+00 (U)


  **** **** ******  **  PROGRAM STARTED AT               2024-09-13 01:04:26.017
 ***** ** ***  *** **   PROGRAM STARTED ON                              nid02363
 **    ****   ******    PROGRAM STARTED BY                              bsertcan
 ***** **    ** ** **   PROGRAM PROCESS ID                                 12691
  **** **  *******  **  PROGRAM STARTED IN /scratch/snx3000/bsertcan/MFU_sp/br/k
                                           r/rep21

 CP2K| version string:                 CP2K version 2024.2 (Development Version)
 CP2K| source code revision number:                                  git:42d1e6b
 CP2K| cp2kflags: omp libint fftw3 libxc parallel scalapack xsmm                
 CP2K| is freely available from                            https://www.cp2k.org/
 CP2K| Program compiled at                         Tue Sep  3 22:59:39 CEST 2024
 CP2K| Program compiled on                                              daint106
 CP2K| Program compiled for                                                local
 CP2K| Data directory path                             /users/bsertcan/cp2k/data
 CP2K| Input file name                                                 input.inp

 GLOBAL| Force Environment number                                              1
 GLOBAL| Basis set file name                                    BASIS_MOLOPT_UZH
 GLOBAL| Potential file name                                       POTENTIAL_UZH
 GLOBAL| MM Potential file name                                     MM_POTENTIAL
 GLOBAL| Coordinate file name                                         rep_21.xyz
 GLOBAL| Method name                                                        CP2K
 GLOBAL| Project name                                                 Replica_21
 GLOBAL| Run type                                                         ENERGY
 GLOBAL| FFT library                                                       FFTW3
 GLOBAL| Diagonalization library                                       ScaLAPACK
 GLOBAL| DGEMM library                                                      BLAS
 GLOBAL| Orthonormality check for eigenvectors                          DISABLED
 GLOBAL| Matrix multiplication library                                 ScaLAPACK
 GLOBAL| All-to-all communication in single precision                          F
 GLOBAL| FFTs using library dependent lengths                                  F
 GLOBAL| Grid backend                                                       AUTO
 GLOBAL| Global print level                                                  LOW
 GLOBAL| MPI I/O enabled                                                       T
 GLOBAL| Total number of message passing processes                           144
 GLOBAL| Number of threads for this process                                    1
 GLOBAL| This output is from process                                           0
 GLOBAL| Stack size for threads created by OpenMP (OMP_STACKSIZE)             5M
 GLOBAL| CPU model name                Intel(R) Xeon(R) CPU E5-2690 v3 @ 2.60GHz
 GLOBAL| CPUID                                                              1002

 MEMORY| system memory details [Kb]
 MEMORY|                        rank 0           min           max       average
 MEMORY| MemTotal             65740148      65740148      65740148      65740148
 MEMORY| MemFree              60812460      60812460      61242808      60926601
 MEMORY| Buffers                  7300          6920          8564          7225
 MEMORY| Cached                1859960       1568648       1888260       1815632
 MEMORY| Slab                   219624        210900        219624        214962
 MEMORY| SReclaimable            49264         47360         49264         48086
 MEMORY| MemLikelyFree        62728984      62728984      62865744      62797544


 *******************************************************************************
 *******************************************************************************
 **                                                                           **
 **     #####                         ##              ##                      **
 **    ##   ##            ##          ##              ##                      **
 **   ##     ##                       ##            ######                    **
 **   ##     ##  ##   ##  ##   #####  ##  ##   ####   ##    #####    #####    **
 **   ##     ##  ##   ##  ##  ##      ## ##   ##      ##   ##   ##  ##   ##   **
 **   ##  ## ##  ##   ##  ##  ##      ####     ###    ##   ######   ######    **
 **    ##  ###   ##   ##  ##  ##      ## ##      ##   ##   ##       ##        **
 **     #######   #####   ##   #####  ##  ##  ####    ##    #####   ##        **
 **           ##                                                    ##        **
 **                                                                           **
 **                                                ... make the atoms dance   **
 **                                                                           **
 **            Copyright (C) by CP2K developers group (2000-2024)             **
 **                      J. Chem. Phys. 152, 194103 (2020)                    **
 **                                                                           **
 *******************************************************************************


 TOTAL NUMBERS AND MAXIMUM NUMBERS

  Total number of            - Atomic kinds:                                   6
                             - Atoms:                                        409
                             - Shell sets:                                   409
                             - Shells:                                      3617
                             - Primitive Cartesian functions:               2052
                             - Cartesian basis functions:                  13634
                             - Spherical basis functions:                  11621

  Maximum angular momentum of- Orbital basis functions:                        3
                             - Local part of the GTH pseudopotential:          2
                             - Non-local part of the GTH pseudopotential:      4

  AUX_FIT ADMM-Basis: 
  Total number of            - Shell sets:                                  2799
                             - Shells:                                      2799
                             - Primitive Cartesian functions:               3609
                             - Cartesian basis functions:                   7546
                             - Spherical basis functions:                   6985
                               Maximum angular momentum                        3


 SCF PARAMETERS         Density guess:                                   RESTART
                        --------------------------------------------------------
                        max_scf:                                              10
                        max_scf_history:                                       0
                        max_diis:                                              4
                        --------------------------------------------------------
                        eps_scf:                                        1.00E-06
                        eps_scf_history:                                0.00E+00
                        eps_diis:                                       1.00E-01
                        eps_eigval:                                     1.00E-05
                        --------------------------------------------------------
                        level_shift [a.u.]:                             0.000000
                        --------------------------------------------------------
                        Outer loop SCF in use 
                        No variables optimised in outer loop
                        eps_scf                                         1.00E-06
                        max_scf                                               10
                        No outer loop optimization
                        step_size                                       5.00E-01

  HFX_INFO| Replica ID:                                                        1
  HFX_INFO| FRACTION:                                               0.2500000000
  HFX_INFO| Interaction Potential:                                     TRUNCATED
  HFX_INFO| Cutoff Radius [angstrom]:                               6.0000000000
  HFX_INFO| EPS_SCHWARZ:                                                 1.0E-08
  HFX_INFO| EPS_SCHWARZ_FORCES                                           1.0E-06
  HFX_INFO| EPS_STORAGE_SCALING:                                         1.0E+00
  HFX_INFO| NBINS:                                                            64
  HFX_INFO| BLOCK_SIZE:                                                        5
  HFX_INFO| NUMBER_OF_SHELLS:                                               AUTO
  HFX_INFO| Number of periodic shells considered:                             -1
  HFX_INFO| Number of periodic cells considered:                              27


 Number of electrons:                                                       2056
 Number of occupied orbitals:                                               1028
 Number of molecular orbitals:                                              1028

 Number of orbital functions:                                              11621
 Number of independent orbital functions:                                  11621

 Extrapolation method: initial_guess

 *** WARNING in qs_initial_guess.F:306 :: User requested to restart the   ***
 *** wavefunction from the file named: Replica_21-RESTART.wfn. This file  ***
 *** does not exist. Please check the existence of the file or change     ***
 *** properly the value of the keyword WFN_RESTART_FILE_NAME. Calculation ***
 *** continues using ATOMIC GUESS.                                        ***



 SCF WAVEFUNCTION OPTIMIZATION

  ----------------------------------- OT ---------------------------------------
  Minimizer      : DIIS                : direct inversion
                                         in the iterative subspace
                                         using   7 DIIS vectors
                                         safer DIIS on
  Preconditioner : FULL_SINGLE_INVERSE : inversion of 
                                         H + eS - 2*(Sc)(c^T*H*c+const)(Sc)^T
  Precond_solver : DEFAULT
  stepsize       :    0.08000000                  energy_gap     :    0.08000000
  eps_taylor     :   0.10000E-15                  max_taylor     :             4
  ----------------------------------- OT ---------------------------------------

  Step     Update method      Time    Convergence         Total energy    Change
  ------------------------------------------------------------------------------

  HFX_MEM_INFO| Est. max. program size before HFX [MiB]:                     452

 *** WARNING in hfx_energy_potential.F:587 :: The Kohn Sham matrix is not ***
 *** 100% occupied. This may result in incorrect Hartree-Fock results.    ***
 *** Setting MIN_PAIR_LIST_RADIUS to -1 in the QS section ensures a fully ***
 *** occupied KS matrix. For more information see FAQ:                    ***
 *** https://www.cp2k.org/faq:hfx_eps_warning                             ***

  HFX_MEM_INFO| Number of cart. primitive ERI's calculated:         604960540408
  HFX_MEM_INFO| Number of sph. ERI's calculated:                    320566517387
  HFX_MEM_INFO| Number of sph. ERI's stored in-core:                313521372358
  HFX_MEM_INFO| Number of sph. ERI's stored on disk:                           0
  HFX_MEM_INFO| Number of sph. ERI's calculated on the fly:                    0
  HFX_MEM_INFO| Total memory consumption ERI's RAM [MiB]:                 276707
  HFX_MEM_INFO| Whereof max-vals [MiB]:                                     4889
  HFX_MEM_INFO| Total compression factor ERI's RAM:                         8.64
  HFX_MEM_INFO| Total memory consumption ERI's disk [MiB]:                     0
  HFX_MEM_INFO| Total compression factor ERI's disk:                        0.00
  HFX_MEM_INFO| Size of density/Fock matrix [MiB]:                           152
  HFX_MEM_INFO| Size of buffers [MiB]:                                        79
  HFX_MEM_INFO| Number of periodic image cells considered:                    27
  HFX_MEM_INFO| Est. max. program size after HFX  [MiB]:                    2618

     1 OT DIIS     0.80E-01  233.9     0.01146110     -4961.0239437190 -4.96E+03
     2 OT DIIS     0.80E-01   36.5     0.00705205     -5038.8633851956 -7.78E+01
     3 OT DIIS     0.80E-01   36.4     0.00653417     -5077.0964128471 -3.82E+01
     4 OT DIIS     0.80E-01   36.4     0.00611063     -5098.4169091143 -2.13E+01
     5 OT DIIS     0.80E-01   36.5     0.00348725     -5137.5892522254 -3.92E+01
     6 OT DIIS     0.80E-01   36.7     0.00265350     -5150.6708985079 -1.31E+01
     7 OT DIIS     0.80E-01   36.5     0.00201068     -5159.8198745654 -9.15E+00
     8 OT DIIS     0.80E-01   36.6     0.00135258     -5166.9907531529 -7.17E+00
     9 OT DIIS     0.80E-01   36.5     0.00114711     -5169.5233857138 -2.53E+00
    10 OT DIIS     0.80E-01   36.5     0.00081551     -5172.5628263381 -3.04E+00

  Leaving inner SCF loop after reaching    10 steps.


  Electronic density on regular grids:      -2055.9999999815        0.0000000185
  Core density on regular grids:             2055.9999998395       -0.0000001605
  Total charge density on r-space grids:       -0.0000001420
  Total charge density g-space grids:          -0.0000001420

  Overlap energy of the core charge distribution:               0.00004732768777
  Self energy of the core charge distribution:              -9698.45125378793819
  Core Hamiltonian energy:                                   2877.60294129213207
  Hartree energy:                                            2710.97348571079874
  Exchange-correlation energy:                               -835.19569508320160
  Hartree-Fock Exchange energy:                              -226.61188473120876
  Dispersion energy:                                           -0.88046706636586

  Total energy:                                             -5172.56282633809496

  outer SCF iter =    1 RMS gradient =   0.82E-03 energy =      -5172.5628263381

  ----------------------------------- OT ---------------------------------------
  Minimizer      : DIIS                : direct inversion
                                         in the iterative subspace
                                         using   7 DIIS vectors
                                         safer DIIS on
  Preconditioner : FULL_SINGLE_INVERSE : inversion of 
                                         H + eS - 2*(Sc)(c^T*H*c+const)(Sc)^T
  Precond_solver : DEFAULT
  stepsize       :    0.08000000                  energy_gap     :    0.08000000
  eps_taylor     :   0.10000E-15                  max_taylor     :             4
  ----------------------------------- OT ---------------------------------------

  Step     Update method      Time    Convergence         Total energy    Change
  ------------------------------------------------------------------------------
     1 OT DIIS     0.80E-01   76.0     0.00132286     -5173.7831082339 -1.22E+00
     2 OT DIIS     0.80E-01   36.4     0.00113840     -5175.3289133796 -1.55E+00
     3 OT DIIS     0.80E-01   36.6     0.00063794     -5177.4440423251 -2.12E+00
     4 OT DIIS     0.80E-01   36.8     0.00046703     -5177.8680405058 -4.24E-01
     5 OT DIIS     0.80E-01   36.5     0.00039925     -5178.0189292001 -1.51E-01
     6 OT DIIS     0.80E-01   36.9     0.00029662     -5178.1241310691 -1.05E-01
     7 OT DIIS     0.80E-01   37.0     0.00028615     -5178.1747189868 -5.06E-02
     8 OT SD       0.80E-01   36.6     0.00028915     -5178.1951211981 -2.04E-02
     9 OT DIIS     0.80E-01   36.6     0.00026465     -5178.2723783011 -7.73E-02
    10 OT DIIS     0.80E-01   36.4     0.00027858     -5178.2980222935 -2.56E-02

  Leaving inner SCF loop after reaching    10 steps.


  Electronic density on regular grids:      -2055.9999999815        0.0000000185
  Core density on regular grids:             2055.9999998395       -0.0000001605
  Total charge density on r-space grids:       -0.0000001420
  Total charge density g-space grids:          -0.0000001420

  Overlap energy of the core charge distribution:               0.00004732768777
  Self energy of the core charge distribution:              -9698.45125378793819
  Core Hamiltonian energy:                                   2873.50861687986344
  Hartree energy:                                            2711.19210685681492
  Exchange-correlation energy:                               -835.47945323149577
  Hartree-Fock Exchange energy:                              -228.18761927206364
  Dispersion energy:                                           -0.88046706636586

  Total energy:                                             -5178.29802229349662

  outer SCF iter =    2 RMS gradient =   0.28E-03 energy =      -5178.2980222935

  ----------------------------------- OT ---------------------------------------
  Minimizer      : DIIS                : direct inversion
                                         in the iterative subspace
                                         using   7 DIIS vectors
                                         safer DIIS on
  Preconditioner : FULL_SINGLE_INVERSE : inversion of 
                                         H + eS - 2*(Sc)(c^T*H*c+const)(Sc)^T
  Precond_solver : DEFAULT
  stepsize       :    0.08000000                  energy_gap     :    0.08000000
  eps_taylor     :   0.10000E-15                  max_taylor     :             4
  ----------------------------------- OT ---------------------------------------

  Step     Update method      Time    Convergence         Total energy    Change
  ------------------------------------------------------------------------------
     1 OT DIIS     0.80E-01   75.6     0.00017741     -5178.3627213331 -6.47E-02
     2 OT DIIS     0.80E-01   36.2     0.00012983     -5178.3877744383 -2.51E-02
     3 OT DIIS     0.80E-01   36.5     0.00009190     -5178.4060838723 -1.83E-02
     4 OT DIIS     0.80E-01   36.4     0.00003046     -5178.4146675862 -8.58E-03
     5 OT DIIS     0.80E-01   36.5     0.00001301     -5178.4151052327 -4.38E-04
     6 OT DIIS     0.80E-01   36.4     0.00000715     -5178.4152209411 -1.16E-04
     7 OT DIIS     0.80E-01   36.4     0.00000338     -5178.4152726326 -5.17E-05
     8 OT DIIS     0.80E-01   36.4     0.00000187     -5178.4152826262 -9.99E-06
     9 OT DIIS     0.80E-01   36.5     0.00000102     -5178.4152862176 -3.59E-06
    10 OT DIIS     0.80E-01   36.5     0.00000054     -5178.4152874490 -1.23E-06

  *** SCF run converged in    10 steps ***


  Electronic density on regular grids:      -2055.9999999816        0.0000000184
  Core density on regular grids:             2055.9999998395       -0.0000001605
  Total charge density on r-space grids:       -0.0000001420
  Total charge density g-space grids:          -0.0000001420

  Overlap energy of the core charge distribution:               0.00004732768777
  Self energy of the core charge distribution:              -9698.45125378793819
  Core Hamiltonian energy:                                   2873.40341653433552
  Hartree energy:                                            2711.21616640770389
  Exchange-correlation energy:                               -835.47457926018592
  Hartree-Fock Exchange energy:                              -228.22861760424726
  Dispersion energy:                                           -0.88046706636586

  Total energy:                                             -5178.41528744900825

  outer SCF iter =    3 RMS gradient =   0.54E-06 energy =      -5178.4152874490
  outer SCF loop converged in   3 iterations or   30 steps


 ENERGY| Total FORCE_EVAL ( QS ) energy [a.u.]:            -5178.415287449008247

 -------------------------------------------------------------------------------
 -                                                                             -
 -                                DBCSR STATISTICS                             -
 -                                                                             -
 -------------------------------------------------------------------------------
 COUNTER                                    TOTAL       BLAS       SMM       ACC
 flops    14 x     4 x     4               129024       0.0%    100.0%      0.0%     
 flops     4 x     4 x   976               187392       0.0%    100.0%      0.0%     
 flops    41 x     4 x     4               314880       0.0%    100.0%      0.0%     
 flops     4 x     4 x   974               374016       0.0%    100.0%      0.0%     
 flops     4 x     4 x   962               461760       0.0%    100.0%      0.0%     
 flops    29 x     4 x     4              1787328       0.0%    100.0%      0.0%     
 flops    14 x    32 x     4             16515072       0.0%    100.0%      0.0%     
 flops    14 x     4 x    32             16515072       0.0%    100.0%      0.0%     
 flops    32 x     4 x   976             23986176       0.0%    100.0%      0.0%     
 flops     4 x    32 x   976             23986176       0.0%    100.0%      0.0%     
 flops    41 x    32 x     4             40304640       0.0%    100.0%      0.0%     
 flops    41 x     4 x    32             40304640       0.0%    100.0%      0.0%     
 flops    32 x     4 x   974             47874048       0.0%    100.0%      0.0%     
 flops     4 x    32 x   974             47874048       0.0%    100.0%      0.0%     
 flops    32 x     4 x   962             59105280       0.0%    100.0%      0.0%     
 flops     4 x    32 x   962             59105280       0.0%    100.0%      0.0%     
 flops     6 x     6 x    68             70502400       0.0%    100.0%      0.0%     
 flops    31 x     6 x    68            109278720       0.0%    100.0%      0.0%     
 flops    14 x     4 x    14            111390720       0.0%    100.0%      0.0%     
 flops    68 x    68 x    68            154700544       0.0%    100.0%      0.0%     
 flops     6 x     6 x    64            199065600       0.0%    100.0%      0.0%     
 flops    29 x    32 x     4            228777984       0.0%    100.0%      0.0%     
 flops    29 x     4 x    32            228777984       0.0%    100.0%      0.0%     
 flops    31 x     6 x    64            308551680       0.0%    100.0%      0.0%     
 flops    41 x    14 x    68            393442560       0.0%    100.0%      0.0%     
 flops    64 x    68 x    68            436801536       0.0%    100.0%      0.0%     
 flops    68 x    64 x    68            436801536       0.0%    100.0%      0.0%     
 flops    68 x    68 x    64            436801536       0.0%    100.0%      0.0%     
 flops    14 x    14 x    68            510515712       0.0%    100.0%      0.0%     
 flops    41 x     4 x    14            521945088       0.0%    100.0%      0.0%     
 flops    14 x     4 x    41            521945088       0.0%    100.0%      0.0%     
 flops     6 x    31 x    68            764951040       0.0%    100.0%      0.0%     
 flops     6 x     6 x    96            796262400       0.0%    100.0%      0.0%     
 flops     6 x    17 x    68            943850880       0.0%    100.0%      0.0%     
 flops    41 x    14 x    64           1110896640       0.0%    100.0%      0.0%     
 flops    17 x     6 x    68           1126961280       0.0%    100.0%      0.0%     
 flops    64 x    64 x    68           1233321984       0.0%    100.0%      0.0%     
 flops    64 x    68 x    64           1233321984       0.0%    100.0%      0.0%     
 flops    68 x    64 x    64           1233321984       0.0%    100.0%      0.0%     
 flops    31 x     6 x    96           1234206720       0.0%    100.0%      0.0%     
 flops   963 x    68 x    68           1282438656       0.0%    100.0%      0.0%     
 flops    14 x    14 x    64           1441456128       0.0%    100.0%      0.0%     
 flops    41 x     4 x    41           1584281984       0.0%    100.0%      0.0%     
 flops    14 x     4 x    29           1731495808       0.0%    100.0%      0.0%     
 flops    29 x     4 x    14           1731495808       0.0%    100.0%      0.0%     
 flops    68 x    68 x    96           1747206144       0.0%    100.0%      0.0%     
 flops    68 x    96 x    68           1747206144       0.0%    100.0%      0.0%     
 flops    96 x    68 x    68           1747206144       0.0%    100.0%      0.0%     
 flops    68 x    68 x   976           2112095232       0.0%    100.0%      0.0%     
 flops     6 x    31 x    64           2159861760       0.0%    100.0%      0.0%     
 flops   976 x    68 x    68           2599501824       0.0%    100.0%      0.0%     
 flops    31 x    31 x    68           2650514880       0.0%    100.0%      0.0%     
 flops     6 x    17 x    64           2664990720       0.0%    100.0%      0.0%     
 flops    17 x     6 x    64           3182008320       0.0%    100.0%      0.0%     
 flops    64 x    64 x    64           3482320896       0.0%    100.0%      0.0%     
 flops   963 x    64 x    68           3621003264       0.0%    100.0%      0.0%     
 flops   963 x    68 x    64           3621003264       0.0%    100.0%      0.0%     
 flops    14 x    41 x    68           3773301504       0.0%    100.0%      0.0%     
 flops    68 x    68 x   974           4215534336       0.0%    100.0%      0.0%     
 flops    14 x    32 x    32           4359979008       0.0%    100.0%      0.0%     
 flops    41 x    14 x    96           4443586560       0.0%    100.0%      0.0%     
 flops    64 x    68 x    96           4933287936       0.0%    100.0%      0.0%     
 flops    64 x    96 x    68           4933287936       0.0%    100.0%      0.0%     
 flops    68 x    64 x    96           4933287936       0.0%    100.0%      0.0%     
 flops    68 x    96 x    64           4933287936       0.0%    100.0%      0.0%     
 flops    96 x    64 x    68           4933287936       0.0%    100.0%      0.0%     
 flops    96 x    68 x    64           4933287936       0.0%    100.0%      0.0%     
 flops   974 x    68 x    68           5188349952       0.0%    100.0%      0.0%     
 flops    68 x    68 x   962           5204496960       0.0%    100.0%      0.0%     
 flops    14 x    14 x    96           5765824512       0.0%    100.0%      0.0%     
 flops    64 x    68 x   976           5963563008       0.0%    100.0%      0.0%     
 flops    68 x    64 x   976           5963563008       0.0%    100.0%      0.0%     
 flops    32 x    32 x   976           6332350464       0.0%    100.0%      0.0%     
 flops    41 x    41 x    68           6345465696       0.0%    100.0%      0.0%     
 flops    14 x    29 x    68           6366183936       0.0%    100.0%      0.0%     
 flops   962 x    68 x    68           6405534720       0.0%    100.0%      0.0%     
 flops   976 x    64 x    68           7339769856       0.0%    100.0%      0.0%     
 flops   976 x    68 x    64           7339769856       0.0%    100.0%      0.0%     
 flops    17 x    31 x    68           7396550400       0.0%    100.0%      0.0%     
 flops    31 x    31 x    64           7483806720       0.0%    100.0%      0.0%     
 flops    41 x     4 x    29           8417796592       0.0%    100.0%      0.0%     
 flops    29 x     4 x    41           8417796592       0.0%    100.0%      0.0%     
 flops   963 x    68 x   976           8436434688       0.0%    100.0%      0.0%     
 flops    29 x    14 x    68           8517178432       0.0%    100.0%      0.0%     
 flops     6 x    31 x    96           8639447040       0.0%    100.0%      0.0%     
 flops    31 x    17 x    68           9817630560       0.0%    100.0%      0.0%     
 flops   963 x    64 x    64          10224009216       0.0%    100.0%      0.0%     
 flops    41 x    32 x    32          10640424960       0.0%    100.0%      0.0%     
 flops    14 x    41 x    64          10654027776       0.0%    100.0%      0.0%     
 flops     6 x    17 x    96          10659962880       0.0%    100.0%      0.0%     
 flops    64 x    68 x   974          11902685184       0.0%    100.0%      0.0%     
 flops    68 x    64 x   974          11902685184       0.0%    100.0%      0.0%     
 flops    32 x    32 x   974          12638748672       0.0%    100.0%      0.0%     
 flops    17 x     6 x    96          12728033280       0.0%    100.0%      0.0%     
 flops    64 x    64 x    96          13929283584       0.0%    100.0%      0.0%     
 flops    64 x    96 x    64          13929283584       0.0%    100.0%      0.0%     
 flops    96 x    64 x    64          13929283584       0.0%    100.0%      0.0%     
 flops   963 x    68 x    96          14484013056       0.0%    100.0%      0.0%     
 flops   963 x    96 x    68          14484013056       0.0%    100.0%      0.0%     
 flops   974 x    64 x    68          14649458688       0.0%    100.0%      0.0%     
 flops   974 x    68 x    64          14649458688       0.0%    100.0%      0.0%     
 flops    64 x    68 x   962          14695050240       0.0%    100.0%      0.0%     
 flops    68 x    64 x   962          14695050240       0.0%    100.0%      0.0%     
 flops    32 x    32 x   962          15603793920       0.0%    100.0%      0.0%     
 flops   963 x    68 x   974          16838293824       0.0%    100.0%      0.0%     
 flops    64 x    64 x   976          16838295552       0.0%    100.0%      0.0%     
 flops   976 x    68 x   976          17100644352       0.0%    100.0%      0.0%     
 flops    17 x    17 x    68          17890787760       0.0%    100.0%      0.0%     
 flops    41 x    41 x    64          17916609024       0.0%    100.0%      0.0%     
 flops    14 x    29 x    64          17975107584       0.0%    100.0%      0.0%     
 flops   962 x    64 x    68          18086215680       0.0%    100.0%      0.0%     
 flops   962 x    68 x    64          18086215680       0.0%    100.0%      0.0%     
 flops    96 x    96 x    68          19733151744       0.0%    100.0%      0.0%     
 flops    68 x    96 x    96          19733151744       0.0%    100.0%      0.0%     
 flops    96 x    68 x    96          19733151744       0.0%    100.0%      0.0%     
 flops   976 x    64 x    64          20724056064       0.0%    100.0%      0.0%     
 flops   963 x    68 x   962          20788550640       0.0%    100.0%      0.0%     
 flops    17 x    31 x    64          20884377600       0.0%    100.0%      0.0%     
 flops   963 x    64 x   976          23820521472       0.0%    100.0%      0.0%     
 flops    68 x    96 x   976          23854252032       0.0%    100.0%      0.0%     
 flops    96 x    68 x   976          23854252032       0.0%    100.0%      0.0%     
 flops    29 x    14 x    64          24048503808       0.0%    100.0%      0.0%     
 flops    31 x    17 x    64          27720368640       0.0%    100.0%      0.0%     
 flops    29 x    41 x    68          28156870704       0.0%    100.0%      0.0%     
 flops    14 x    32 x    14          28516024320       0.0%    100.0%      0.0%     
 flops   976 x    68 x    96          29359079424       0.0%    100.0%      0.0%     
 flops   976 x    96 x    68          29359079424       0.0%    100.0%      0.0%     
 flops    31 x    31 x    96          29935226880       0.0%    100.0%      0.0%     
 flops    29 x     4 x    29          30139677264       0.0%    100.0%      0.0%     
 flops    64 x    64 x   974          33607581696       0.0%    100.0%      0.0%     
 flops   976 x    68 x   974          34131204096       0.0%    100.0%      0.0%     
 flops   974 x    68 x   976          34131204096       0.0%    100.0%      0.0%     
 flops    41 x    29 x    68          38020329592       0.0%    100.0%      0.0%     
 flops   963 x    64 x    96          40896036864       0.0%    100.0%      0.0%     
 flops   963 x    96 x    64          40896036864       0.0%    100.0%      0.0%     
 flops   974 x    64 x    64          41363177472       0.0%    100.0%      0.0%     
 flops    64 x    64 x   962          41491906560       0.0%    100.0%      0.0%     
 flops   976 x    68 x   962          42138370560       0.0%    100.0%      0.0%     
 flops   962 x    68 x   976          42138370560       0.0%    100.0%      0.0%     
 flops    14 x    41 x    96          42616111104       0.0%    100.0%      0.0%     
 flops   963 x    64 x   974          47543417856       0.0%    100.0%      0.0%     
 flops    68 x    96 x   974          47610740736       0.0%    100.0%      0.0%     
 flops    96 x    68 x   974          47610740736       0.0%    100.0%      0.0%     
 flops   976 x    64 x   976          48284172288       0.0%    100.0%      0.0%     
 flops    17 x    17 x    64          50515165440       0.0%    100.0%      0.0%     
 flops   962 x    64 x    64          51066961920       0.0%    100.0%      0.0%     
 flops    96 x    96 x    64          55717134336       0.0%    100.0%      0.0%     
 flops    64 x    96 x    96          55717134336       0.0%    100.0%      0.0%     
 flops    96 x    64 x    96          55717134336       0.0%    100.0%      0.0%     
 flops   974 x    96 x    68          58597834752       0.0%    100.0%      0.0%     
 flops   974 x    68 x    96          58597834752       0.0%    100.0%      0.0%     
 flops   963 x    64 x   962          58697084160       0.0%    100.0%      0.0%     
 flops    68 x    96 x   962          58780200960       0.0%    100.0%      0.0%     
 flops    96 x    68 x   962          58780200960       0.0%    100.0%      0.0%     
 flops    29 x    32 x    32          60397387776       0.0%    100.0%      0.0%     
 flops    64 x    96 x   976          67353182208       0.0%    100.0%      0.0%     
 flops    96 x    64 x   976          67353182208       0.0%    100.0%      0.0%     
 flops   974 x    68 x   974          68122526208       0.0%    100.0%      0.0%     
 flops    41 x    41 x    96          71666436096       0.0%    100.0%      0.0%     
 flops    14 x    29 x    96          71900430336       0.0%    100.0%      0.0%     
 flops   962 x    68 x    96          72344862720       0.0%    100.0%      0.0%     
 flops   962 x    96 x    68          72344862720       0.0%    100.0%      0.0%     
 flops    29 x    41 x    64          79501752576       0.0%    100.0%      0.0%     
 flops   976 x    64 x    96          82896224256       0.0%    100.0%      0.0%     
 flops   976 x    96 x    64          82896224256       0.0%    100.0%      0.0%     
 flops    17 x    31 x    96          83537510400       0.0%    100.0%      0.0%     
 flops   962 x    68 x   974          84104042880       0.0%    100.0%      0.0%     
 flops   974 x    68 x   962          84104042880       0.0%    100.0%      0.0%     
 flops   963 x    96 x   976          95282085888       0.0%    100.0%      0.0%     
 flops    29 x    14 x    96          96194015232       0.0%    100.0%      0.0%     
 flops   976 x    64 x   974          96370458624       0.0%    100.0%      0.0%     
 flops   974 x    64 x   976          96370458624       0.0%    100.0%      0.0%     
 flops   962 x    68 x   962         103834816800       0.0%    100.0%      0.0%     
 flops    41 x    29 x    64         107351518848       0.0%    100.0%      0.0%     
 flops    31 x    17 x    96         110881474560       0.0%    100.0%      0.0%     
 flops   976 x    64 x   962         118978928640       0.0%    100.0%      0.0%     
 flops   962 x    64 x   976         118978928640       0.0%    100.0%      0.0%     
 flops    29 x    29 x    68         125623964592       0.0%    100.0%      0.0%     
 flops    41 x    32 x    14         133617942528       0.0%    100.0%      0.0%     
 flops    14 x    32 x    41         133617942528       0.0%    100.0%      0.0%     
 flops    64 x    96 x   974         134430326784       0.0%    100.0%      0.0%     
 flops    96 x    64 x   974         134430326784       0.0%    100.0%      0.0%     
 flops   963 x    96 x    96         163584147456       0.0%    100.0%      0.0%     
 flops   974 x    96 x    64         165452709888       0.0%    100.0%      0.0%     
 flops   974 x    64 x    96         165452709888       0.0%    100.0%      0.0%     
 flops    64 x    96 x   962         165967626240       0.0%    100.0%      0.0%     
 flops    96 x    64 x   962         165967626240       0.0%    100.0%      0.0%     
 flops   963 x    96 x   974         190173671424       0.0%    100.0%      0.0%     
 flops   974 x    64 x   974         192345956352       0.0%    100.0%      0.0%     
 flops   976 x    96 x   976         193136689152       0.0%    100.0%      0.0%     
 flops    17 x    17 x    96         202060661760       0.0%    100.0%      0.0%     
 flops   962 x    64 x    96         204267847680       0.0%    100.0%      0.0%     
 flops   962 x    96 x    64         204267847680       0.0%    100.0%      0.0%     
 flops    96 x    96 x    96         222868537344       0.0%    100.0%      0.0%     
 flops   963 x    96 x   962         234788336640       0.0%    100.0%      0.0%     
 flops   962 x    64 x   974         237470238720       0.0%    100.0%      0.0%     
 flops   974 x    64 x   962         237470238720       0.0%    100.0%      0.0%     
 flops    96 x    96 x   976         269412728832       0.0%    100.0%      0.0%     
 flops   962 x    64 x   962         293180659200       0.0%    100.0%      0.0%     
 flops    29 x    41 x    96         318007010304       0.0%    100.0%      0.0%     
 flops   976 x    96 x    96         331584897024       0.0%    100.0%      0.0%     
 flops    29 x    29 x    64         354702958848       0.0%    100.0%      0.0%     
 flops   974 x    96 x   976         385481834496       0.0%    100.0%      0.0%     
 flops   976 x    96 x   974         385481834496       0.0%    100.0%      0.0%     
 flops    41 x    32 x    41         405576187904       0.0%    100.0%      0.0%     
 flops    41 x    29 x    96         429406075392       0.0%    100.0%      0.0%     
 flops    14 x    32 x    29         443262926848       0.0%    100.0%      0.0%     
 flops    29 x    32 x    14         443262926848       0.0%    100.0%      0.0%     
 flops   976 x    96 x   962         475915714560       0.0%    100.0%      0.0%     
 flops   962 x    96 x   976         475915714560       0.0%    100.0%      0.0%     
 flops    96 x    96 x   974         537721307136       0.0%    100.0%      0.0%     
 flops   974 x    96 x    96         661810839552       0.0%    100.0%      0.0%     
 flops    96 x    96 x   962         663870504960       0.0%    100.0%      0.0%     
 flops   974 x    96 x   974         769383825408       0.0%    100.0%      0.0%     
 flops   962 x    96 x    96         817071390720       0.0%    100.0%      0.0%     
 flops   974 x    96 x   962         949880954880       0.0%    100.0%      0.0%     
 flops   962 x    96 x   974         949880954880       0.0%    100.0%      0.0%     
 flops   962 x    96 x   962        1172722636800       0.0%    100.0%      0.0%     
 flops    29 x    29 x    96        1418811835392       0.0%    100.0%      0.0%     
 flops    41 x    32 x    29        2154955927552       0.0%    100.0%      0.0%     
 flops    29 x    32 x    41        2154955927552       0.0%    100.0%      0.0%     
 flops    29 x    32 x    29        7715757379584       0.0%    100.0%      0.0%     
 flops inhomo. stacks               1014255147648     100.0%      0.0%      0.0%
 flops total                        33.809754E+12       3.0%     97.0%      0.0%
 flops max/rank                    270.999753E+09       3.0%     97.0%      0.0%
 matmuls inhomo. stacks                     23283     100.0%      0.0%      0.0%
 matmuls total                          290983020       0.0%    100.0%      0.0%
 number of processed stacks               3205413       0.7%     99.3%      0.0%
 average stack size                                     1.1      91.4       0.0
 marketing flops                    49.398877E+12
 -------------------------------------------------------------------------------
 # multiplications                            690
 max memory usage/rank               2.667127E+09
 # max total images/rank                        1
 # max 3D layers                                1
 # MPI messages exchanged                 2185920
 MPI messages size (bytes):
  total size                         1.668451E+12
  min size                           0.000000E+00
  max size                           7.620608E+06
  average size                     763.271562E+03
 MPI breakdown and total messages size (bytes):
             size <=      128               13860                        0
       128 < size <=     8192                   0                        0
      8192 < size <=    32768               63657               2081591424
     32768 < size <=   131072              948915              57352141440
    131072 < size <=  4194304              990000             631887873760
   4194304 < size <= 16777216              169488             977134423848
  16777216 < size                               0                        0
 -------------------------------------------------------------------------------
 -                                                                             -
 -                      DBCSR MESSAGE PASSING PERFORMANCE                      -
 -                                                                             -
 -------------------------------------------------------------------------------
 ROUTINE             CALLS      AVE VOLUME [Bytes]
 MP_Bcast              223                     12.
 MP_Allreduce         4123                     28.
 MP_Alltoall          4460                 305837.
 MP_ISend            33108                 361136.
 MP_IRecv            33108                 358624.
 -------------------------------------------------------------------------------

 -------------------------------------------------------------------------------
 -                                                                             -
 -                                DBM STATISTICS                               -
 -                                                                             -
 -------------------------------------------------------------------------------
    M  x    N  x    K                                          COUNT     PERCENT
 -------------------------------------------------------------------------------

 -------------------------------------------------------------------------------
 -                                                                             -
 -                                GRID STATISTICS                              -
 -                                                                             -
 -------------------------------------------------------------------------------
 LP    KERNEL             BACKEND                              COUNT     PERCENT
 6     collocate ortho    CPU                                8170448      16.16%
 6     integrate ortho    CPU                                7907040      15.64%
 1     collocate ortho    CPU                                5683620      11.24%
 1     integrate ortho    CPU                                5683620      11.24%
 2     collocate ortho    CPU                                4642230       9.18%
 2     integrate ortho    CPU                                4642230       9.18%
 0     collocate ortho    CPU                                2826840       5.59%
 0     integrate ortho    CPU                                2826840       5.59%
 3     collocate ortho    CPU                                1977510       3.91%
 3     integrate ortho    CPU                                1977510       3.91%
 5     collocate ortho    CPU                                1540712       3.05%
 5     integrate ortho    CPU                                1493340       2.95%
 4     collocate ortho    CPU                                 565272       1.12%
 4     integrate ortho    CPU                                 562200       1.11%
 0     collocate general  CPU                                  58896       0.12%
 -------------------------------------------------------------------------------

 MEMORY| Estimated peak process memory [MiB]                                2696

 -------------------------------------------------------------------------------
 -                                                                             -
 -                         MESSAGE PASSING PERFORMANCE                         -
 -                                                                             -
 -------------------------------------------------------------------------------

 ROUTINE             CALLS      AVE VOLUME [Bytes]
 MP_Group                4
 MP_Bcast             3495                4224916.
 MP_Allreduce         7790                   2500.
 MP_Sync               185
 MP_Alltoall          1389                5971529.
 MP_SendRecv         17446                  44208.
 MP_ISendRecv        26026                 263758.
 MP_Wait             37204
 MP_comm_split          28
 MP_ISend            10206                 254460.
 MP_IRecv            10206                 254420.
 -------------------------------------------------------------------------------


 -------------------------------------------------------------------------------
 -                                                                             -
 -                           R E F E R E N C E S                               -
 -                                                                             -
 -------------------------------------------------------------------------------
 
 CP2K version 2024.2 (Development Version), the CP2K developers group (2024).
 CP2K is freely available from https://www.cp2k.org/ .
 
 T. D. Kuehne, M. Iannuzzi, M. Del Ben, V. V. Rybkin, P. Seewald, F. Stein, T. 
 Laino, R. Z. Khaliullin, O. Schuett, F. Schiffmann, D. Golze, J. Wilhelm, S. 
 Chulkov, M. H. Bani-Hashemian, V. Weber, U. Borstnik, M. Taillefumier, A. S. 
 Jakobovits, A. Lazzaro, H. Pabst, T. Mueller, R. Schade, M. Guidon, S. 
 Andermatt, N. Holmberg, G. K. Schenter, A. Hehn, A. Bussy, F. Belleflamme, G. 
 Tabacchi, A. Gloess, M. Lass, I. Bethune, C. J. Mundy, C. Plessl, M. Watkins, 
 J. VandeVondele, M. Krack, J. Hutter.
 J. Chem. Phys. 152, 194103 (2020).
 CP2K: An electronic structure and molecular dynamics software package - 
 Quickstep: Efficient and accurate electronic structure calculations.
 https://doi.org/10.1063/5.0007045

 S. Lehtola, C. Steigemann, M. J. T. Oliveira, M. A. L. Marques.
 SoftwareX 7, 1-5 (2018).
 Recent developments in libxc - A comprehensive library of functionals for 
 density functional theory.
 https://doi.org/10.1016/j.softx.2017.11.002

 L. Goerigk, A. Hansen, C. Bauer, S. Ehrlich, A. Najibi, S. Grimme.
 Phys. Chem. Chem. Phys. 19, 32184-32215 (2017).
 A look at the density functional theory zoo with the advanced GMTKN55 database 
 for general main group thermochemistry, kinetics and noncovalent interactions.
 https://doi.org/10.1039/C7CP04913G

 O. Schuett, P. Messmer, J. Hutter, J. VandeVondele.
 Electronic Structure Calculations on Graphics Processing Units, 173-190 (2016).
 GPU-Accelerated Sparse Matrix-Matrix Multiplication for Linear Scaling Density 
 Functional Theory.
 https://doi.org/10.1002/9781118670712.ch8

 A. Heinecke, G. Henry, M. Hutchinson, H. Pabst.
 Proceedings of Intl. Supercomputing Conference, 981-991 (2016).
 LIBXSMM: Accelerating Small Matrix Multiplications by Runtime Code Generation.
 https://doi.org/10.1109/SC.2016.83

 J. Hutter, M. Iannuzzi, F. Schiffmann, J. VandeVondele.
 WIREs Comput Mol Sci. 4, 15-25 (2014).
 CP2K: atomistic simulations of condensed matter systems.
 https://doi.org/10.1002/wcms.1159

 U. Borstnik, J. VandeVondele, V. Weber, J. Hutter.
 Parallel Comput. 40, 47-58 (2014).
 Sparse matrix multiplication: The distributed block-compressed sparse row 
 library.
 https://doi.org/10.1016/j.parco.2014.03.012

 M. A. L. Marques, M. J. T. Oliveira, T. Burnus.
 Comput. Phys. Commun. 183, 2272-2281 (2012).
 LIBXC: A library of exchange and correlation functionals for density functional 
 theory.
 https://doi.org/10.1016/j.cpc.2012.05.007

 S. Grimme, S. Ehrlich, L. Goerigk.
 J. Comput. Chem. 32, 1456 (2011).
 Effect of the damping function in dispersion corrected density functional 
 theory.
 https://doi.org/10.1002/jcc.21759

 S. Grimme, J. Antony, S. Ehrlich, H. Krieg.
 J. Chem. Phys. 132, 154104 (2010).
 A consistent and accurate ab initio parametrization of density functional 
 dispersion correction (DFT-D) for the 94 elements H-Pu.
 https://doi.org/10.1063/1.3382344

 M. Guidon, J. Hutter, J. VandeVondele.
 J. Chem. Theory Comput. 6, 2348-2364 (2010).
 Auxiliary Density Matrix Methods for Hartree-Fock Exchange Calculations.
 https://doi.org/10.1021/ct1002225

 M. Guidon, J. Hutter, J. VandeVondele.
 J. Chem. Theory Comput. 5, 3010-3021 (2009).
 Robust Periodic Hartree-Fock Exchange for Large-Scale Simulations Using 
 Gaussian Basis Sets.
 https://doi.org/10.1021/ct900494g

 M. Guidon, F. Schiffmann, J. Hutter, J. VandeVondele.
 J. Chem. Phys. 128, 214104 (2008).
 Ab initio molecular dynamics using hybrid density functionals.
 https://doi.org/10.1063/1.2931945

 J. VandeVondele, J. Hutter.
 J. Chem. Phys. 127, 114105 (2007).
 Gaussian basis sets for accurate calculations on molecular systems in gas and 
 condensed phases.
 https://doi.org/10.1063/1.2770708

 J. VandeVondele, M. Krack, F. Mohamed, M. Parrinello, T. Chassaing, J. Hutter.
 Comput. Phys. Commun. 167, 103-128 (2005).
 QUICKSTEP: Fast and accurate density functional calculations using a mixed 
 Gaussian and plane waves approach.
 https://doi.org/10.1016/j.cpc.2004.12.014

 M. Krack.
 Theor. Chem. Acc. 114, 145-152 (2005).
 Pseudopotentials for H to Kr optimized for gradient-corrected 
 exchange-correlation functionals.
 https://doi.org/10.1007/s00214-005-0655-y

 M. Frigo, S. G. Johnson.
 Proc. IEEE 93, 216-231 (2005).
 The design and implementation of FFTW3.
 https://doi.org/10.1109/JPROC.2004.840301

 J. VandeVondele, J. Hutter.
 J. Chem. Phys. 118, 4365-4369 (2003).
 An efficient orbital transformation method for electronic structure 
 calculations.
 https://doi.org/10.1063/1.1543154

 C. Hartwigsen, S. Goedecker, J. Hutter.
 Phys. Rev. B 58, 3641-3662 (1998).
 Relativistic separable dual-space Gaussian pseudopotentials from H to Rn.
 https://doi.org/10.1103/PhysRevB.58.3641

 G. Lippert, J. Hutter, M. Parrinello.
 Mol. Phys. 92, 477-487 (1997).
 A hybrid Gaussian and plane wave density functional scheme.
 https://doi.org/10.1080/002689797170220

 S. Goedecker, M. Teter, J. Hutter.
 Phys. Rev. B 54, 1703-1710 (1996).
 Separable dual-space Gaussian pseudopotentials.
 https://doi.org/10.1103/PhysRevB.54.1703

 J. P. Perdew, K. Burke, M. Ernzerhof.
 Phys. Rev. Lett. 77, 3865-3868 (1996).
 Generalized gradient approximation made simple.
 https://doi.org/10.1103/PhysRevLett.77.3865


 -------------------------------------------------------------------------------
 -                                                                             -
 -                                T I M I N G                                  -
 -                                                                             -
 -------------------------------------------------------------------------------
 SUBROUTINE                       CALLS  ASD         SELF TIME        TOTAL TIME
                                MAXIMUM       AVERAGE  MAXIMUM  AVERAGE  MAXIMUM
 CP2K                                 1  1.0    0.074    0.090 1302.937 1302.943
 qs_energies                          1  2.0    0.007    0.010 1301.133 1301.140
 scf_env_do_scf                       1  3.0    0.000    0.000 1299.640 1299.647
 qs_ks_update_qs_env                 33  5.0    0.000    0.000 1259.837 1259.843
 rebuild_ks_matrix                   30  6.0    0.000    0.000 1259.758 1259.764
 qs_ks_build_kohn_sham_matrix        30  7.0    0.005    0.006 1259.758 1259.763
 hfx_ks_matrix                       30  8.0    0.002    0.003 1163.582 1163.598
 integrate_four_center               30  9.0    1.492    2.037 1163.490 1163.503
 integrate_four_center_main          30 10.0    0.034    0.037 1086.637 1119.487
 integrate_four_center_bin         1920 11.0 1086.603 1119.454 1086.603 1119.454
 scf_env_do_scf_inner_loop           30  4.0    0.001    0.007  989.967  990.225
 init_scf_loop                        3  4.0    0.000    0.000  309.541  309.552
 mp_sync                            185 11.1   43.023   80.765   43.023   80.765
 parallel_gemm_fm                   125 10.2    0.000    0.002   32.653   32.944
 parallel_gemm_fm_gemm              125 11.2    0.000    0.000   32.653   32.943
 cp_fm_gemm                         125 12.2   32.652   32.943   32.652   32.943
 admm_mo_merge_ks_matrix             30  8.0    0.000    0.000   30.927   30.948
 merge_ks_matrix_none                30  9.0    0.002    0.002   30.927   30.947
 qs_vxc_create                       60  8.0    0.001    0.001   30.308   30.308
 xc_vxc_pw_create                    60  9.0    0.152    0.187   30.307   30.307
 fft_wrap_pw1pw2                    996 10.8    0.021    0.027   26.324   27.738
 fft_wrap_pw1pw2_300                633 12.1    0.875    0.928   25.105   26.532
 -------------------------------------------------------------------------------

 The number of warnings for this run is : 2
 
 -------------------------------------------------------------------------------
  **** **** ******  **  PROGRAM ENDED AT                 2024-09-13 01:26:09.574
 ***** ** ***  *** **   PROGRAM RAN ON                                  nid02363
 **    ****   ******    PROGRAM RAN BY                                  bsertcan
 ***** **    ** ** **   PROGRAM PROCESS ID                                 12691
  **** **  *******  **  PROGRAM STOPPED IN /scratch/snx3000/bsertcan/MFU_sp/br/k
                                           r/rep21
