     409
 i =     176, E =    -5136.7147813962
  N         2.9898258555        5.2030745498       16.0273889049
  C         1.6716353621        5.4717084074       16.2958860337
  N        13.8021455950        5.1960846988        5.1960862738
  C        12.4845871963        5.4667545263        5.4667556097
  N        19.6827974251       17.5742186661       16.0179500763
  C        21.0004684617       17.3070402046       16.2913324207
  N         8.8512304950       17.5809880736        5.2131515159
  C        10.1691826252       17.3087984241        5.4798369189
  N        19.6641750823        5.1956225516        6.7514942999
  C        20.9819130272        5.4683841192        6.4840458556
  N         8.8512483747        5.2131415458       17.5809860968
  C        10.1691797231        5.4797838237       17.3087478742
  N         2.9860338875       17.5818767325        6.7607625685
  C         1.6690221974       17.3107858705        6.4881540762
  N        13.8199949089       17.5739883286       17.5739782264
  C        12.5017560900       17.3052500575       17.3051142125
  N        15.9551890167        3.0405106390        5.1953202513
  C        16.2258176031        1.7230838035        5.4659919182
  N        15.9708861343       13.8643253776       16.0165918788
  C        16.2396097515       12.5465015900       16.2866907410
  N        15.9727344206       19.7254447678       17.5722100669
  C        16.2404183974       21.0433701526       17.3011455350
  N        15.9578203376        8.9055584032        6.7512641375
  C        16.2294980878       10.2232632370        6.4824891850
  N         6.6963640374       19.7366186645        5.2103316920
  C         6.4243581264       21.0540980623        5.4800114867
  N         6.6928834251        8.9155812345       16.0178423820
  C         6.4242532302       10.2334403256       16.2882272157
  N         6.7015178389        3.0563813872       17.5826909382
  C         6.4342855234        1.7380035477       17.3121452324
  N         6.7035248911       13.8721435153        6.7551042121
  C         6.4323725920       12.5544389217        6.4872671904
  N         5.1466702152       16.0256860530        3.0536571495
  C         5.4190930978       16.2959736753        1.7363571507
  N         5.1385996138        5.2086975799       13.8714775853
  C         5.4099637721        5.4784402632       12.5538883936
  N        17.5278231291       16.0157378265       19.7270969340
  C        17.2557738627       16.2852866679       21.0445525479
  N        17.5129322984        5.1950085799        8.9052359531
  C        17.2448210463        5.4665236811       10.2229995055
  N         5.1414353406        6.7673439414       19.7354100381
  C         5.4098695631        6.4968779897       21.0533187172
  N         5.1399658431       17.5774006501        8.9173253000
  C         5.4111343594       17.3065694233       10.2346504911
  N        17.5107653070        6.7517420219        3.0418577661
  C        17.2412942038        6.4818872913        1.7240432909
  N        17.5276523286       17.5720737797       13.8625795283
  C        17.2554733885       17.3021863142       12.5451960929
  N         5.1361835560        3.0526582518        6.7669599926
  C         5.4067630638        1.7348691411        6.4969997323
  N         5.1509327293       13.8738014975       17.5819702747
  C         5.4163872440       12.5558713571       17.3087836298
  N        17.5148483836       19.7254190832        6.7523067105
  C        17.2433260042       21.0427687396        6.4821525907
  N        17.5190386984        8.9057853204       17.5728068526
  C        17.2513758514       10.2237838621       17.3022424500
  N         5.1540146522       19.7367214137       16.0263024286
  C         5.4227984894       21.0547122364       16.2963705268
  N         5.1360269487        8.9150079315        5.2157622782
  C         5.4088606200       10.2326951042        5.4824254773
  N        17.5196824111        3.0439359631       16.0141243525
  C        17.2515678063        1.7260135974       16.2846901580
  N        17.5191211844       13.8620352097        5.1987549727
  C        17.2478039213       12.5444414225        5.4682637134
  N         2.9997193566       16.0283707117       17.5840941558
  C         1.6820266038       16.2962404245       17.3118308019
  N        13.8091133813       16.0168945200        6.7560712470
  C        12.4913381484       16.2895218649        6.4895125187
  N        19.6732622698       16.0186431236        5.1976530327
  C        20.9902925445       16.2913821432        5.4686722598
  N         8.8599681336       16.0231565349       16.0231377518
  C        10.1781962633       16.2922121582       16.2920533847
  N        19.6693571563        6.7530431184       17.5749612229
  C        20.9876207834        6.4843254516       17.3069842407
  N         8.8472118074        6.7548919466        6.7548928375
  C        10.1644060775        6.4836586935        6.4836590589
  N         2.9811590003        6.7619337312        5.2059952408
  C         1.6634456651        6.4889159546        5.4732005351
  N        13.8091168199        6.7560653084       16.0168976747
  C        12.4913399710        6.4894673330       16.2894840300
  N        15.9597259640        5.1958445922       19.7237827924
  C        16.2280080182        5.4662021594       21.0417555299
  N        15.9642650179       16.0159956894        8.9080143807
  C        16.2361642233       16.2862441272       10.2252399782
  N        15.9628985333       17.5695364772        3.0420544651
  C        16.2356819228       17.3001401275        1.7247641299
  N        15.9625239511        6.7546308153       13.8623168977
  C        16.2320114253        6.4839079899       12.5446687280
  N         6.6871170990        5.2067538408        3.0530415018
  C         6.4197243353        5.4788074638        1.7354058683
  N         6.7034099783       16.0230114645       13.8721330287
  C         6.4296601798       16.2907562979       12.5547304270
  N         6.7099739958       17.5825879993       19.7386160440
  C         6.4382668744       17.3123398231       21.0561320302
  N         6.7012953377        6.7629390033        8.9159890817
  C         6.4313332863        6.4912551111       10.2332542733
  N        19.6693558661       17.5749650536        6.7530435791
  C        20.9876209403       17.3070086559        6.4842980280
  N         8.8630272843       17.5795705028       17.5795536352
  C        10.1802773738       17.3080278651       17.3078705369
  N         2.9811499961        5.2059879959        6.7619403505
  C         1.6634472350        5.4731996945        6.4889162649
  N        13.8078184583        5.1975984320       17.5706099143
  C        12.4904771395        5.4723680384       17.3037629122
  N         2.9997229210       17.5840751104       16.0283917855
  C         1.6820344591       17.3118182915       16.2962537314
  N        13.8078207437       17.5706082647        5.1976031678
  C        12.4904742028       17.3038041095        5.4724106292
  N        19.6732667128        5.1976520675       16.0186379386
  C        20.9902917165        5.4686991737       16.2913570341
  N         8.8442621746        5.1990565547        5.1990585482
  C        10.1626360435        5.4679833285        5.4679843287
  N         6.7100116019       19.7385698407       17.5826054727
  C         6.4383658990       21.0561485227       17.3123069748
  N         6.7012959680        8.9159878132        6.7629411329
  C         6.4313374953       10.2332527071        6.4912499390
  N         6.6871135215        3.0530392336        5.2067529037
  C         6.4197309576        1.7354026659        5.4788095253
  N         6.7033763088       13.8720844691       16.0230343944
  C         6.4295406026       12.5547482775       16.2907069082
  N        15.9628920321        3.0420520205       17.5695388216
  C        16.2356451742        1.7247619773       17.3001113479
  N        15.9625304471       13.8623013414        6.7546292559
  C        16.2320222971       12.5446750375        6.4839125134
  N        15.9597193903       19.7237647817        5.1958424782
  C        16.2279985108       21.0417618212        5.4662028452
  N        15.9642706465        8.9080127781       16.0159986386
  C        16.2361941978       10.2252378694       16.2862196622
  N        17.5148444223        6.7522993945       19.7254330812
  C        17.2433270050        6.4821439117       21.0427649716
  N        17.5190385210       17.5728087789        8.9057833851
  C        17.2513481893       17.3022694039       10.2237854977
  N         5.1361911548        6.7669566382        3.0526661849
  C         5.4067623575        6.4969917947        1.7348702782
  N         5.1509321201       17.5819829368       13.8738555592
  C         5.4164502026       17.3088910514       12.5558629194
  N        17.5196824570       16.0141282816        3.0439375766
  C        17.2516001480       16.2847232828        1.7260151299
  N        17.5191242191        5.1987460353       13.8620443629
  C        17.2477986627        5.4682526315       12.5444381322
  N         5.1540113832       16.0263164992       19.7367719608
  C         5.4227549892       16.2964594034       21.0547045699
  N         5.1360236668        5.2157565565        8.9150169045
  C         5.4088537095        5.4824275179       10.2326953230
  N        17.5278242890       19.7270761384       16.0157307619
  C        17.2557396802       21.0445560198       16.2852470904
  N        17.5129291674        8.9052299427        5.1950122234
  C        17.2448247729       10.2230018661        5.4665273404
  N         5.1466698735        3.0536574275       16.0256779644
  C         5.4191250644        1.7363357878       16.2959017897
  N         5.1386060260       13.8714597601        5.2087056120
  C         5.4099796290       12.5538921540        5.4784368088
  N        17.5107702223        3.0418492524        6.7517454149
  C        17.2412934115        1.7240443674        6.4818896600
  N        17.5276509756       13.8625612587       17.5720671980
  C        17.2555075490       12.5451993947       17.3021482851
  N         5.1414297784       19.7353903046        6.7673615872
  C         5.4098769283       21.0533265820        6.4969068681
  N         5.1399683046        8.9173298614       17.5773896475
  C         5.4110609190       10.2346237497       17.3064530690
  N        19.6641670523        6.7514878942        5.1956297718
  C        20.9819144933        6.4840460269        5.4683845442
  N         8.8525692578        6.7698126813       16.0261977963
  C        10.1699933105        6.4962208664       16.2939782764
  N         2.9860441106        6.7607649370       17.5818762537
  C         1.6690178183        6.4881921977       17.3107529777
  N        13.8035398598        6.7524223177        6.7524229276
  C        12.4857469190        6.4824333445        6.4824337742
  N         2.9898225783       16.0273962782        5.2030782932
  C         1.6716352535       16.2959225110        5.4716730458
  N        13.8170474907       16.0181981228       16.0181874608
  C        12.4997303101       16.2895660651       16.2894304250
  N        19.6827980219       16.0179434201       17.5742255732
  C        21.0004688272       16.2913269305       17.3070457804
  N         8.8525647328       16.0261939366        6.7698266941
  C        10.1699982982       16.2940213352        6.4962803226
  N         6.7014965858       17.5826785906        3.0563869745
  C         6.4342086644       17.3121720873        1.7380281788
  N         6.7035334968        6.7551110555       13.8721667130
  C         6.4323679378        6.4872817282       12.5544303942
  N         6.6963567063        5.2103260872       19.7366497996
  C         6.4243345260        5.4799985467       21.0540899917
  N         6.6929017121       16.0178333253        8.9155769416
  C         6.4243754731       16.2882953213       10.2334666086
  N        15.9727457957       17.5722057722       19.7254630429
  C        16.2404640021       17.3011747751       21.0433636641
  N        15.9578224879        6.7512627485        8.9055565313
  C        16.2294950622        6.4824856466       10.2232629138
  N        15.9551870006        5.1953186750        3.0405106851
  C        16.2258199330        5.4659903057        1.7230848870
  N        15.9708755013       16.0165873877       13.8643409930
  C        16.2395673005       16.2867208170       12.5464945489
 Zn        14.6746818825       14.7239782237       14.7239802910
 Br        13.3586508119       13.4105809231       13.4105789014
 Zn        14.6623577720        3.9015869303        3.9015888829
 Br        13.3446923303        2.5887870468        2.5887882111
 Zn         3.8499239883       14.7319969970        3.9100130539
 Br         2.5346765791       13.4197593496        2.5949761341
 Zn         3.8499352212        3.9100107195       14.7320137453
 Br         2.5346776799        2.5949756833       13.4197596783
 Zn         7.9914795653        8.0563020434       14.7266117699
 Br         9.2864991373        9.3732171744       13.3952818571
 Zn         7.9938688788       18.8759720070        3.9204144560
 Br         9.3086689200       20.1890985670        2.6051009680
 Zn        18.8052545477        8.0457879132        3.9013446123
 Br        20.1206256482        9.3580640386        2.5859869225
 Zn        18.8215754887       18.8673646497       14.7222170437
 Br        20.1362079248       20.1802025158       13.4068875145
 Zn         7.9914680281       14.7266196416        8.0563136614
 Br         9.2865013536       13.3952828601        9.3732214400
 Zn         7.9938636020        3.9203893418       18.8759699613
 Br         9.3086728251        2.6050918596       20.1891010359
 Zn        18.8215851404       14.7222095889       18.8673720538
 Br        20.1362118743       13.4068847523       20.1802043997
 Zn        18.8052525151        3.9013460267        8.0457848686
 Br        20.1206240469        2.5859884272        9.3580633452
 Zn        14.6655876453        8.0468160374        8.0468168504
 Br        13.3675715199        9.3689574718        9.3689580327
 Zn        14.6799239944       18.8678421433       18.8678460501
 Br        13.3667148750       20.1826225817       20.1826212346
 Zn         3.8462431148        8.0576451844       18.8732371184
 Br         2.5334714861        9.3735968698       20.1874878716
 Zn         3.8462549132       18.8732208665        8.0576496043
 Br         2.5334742059       20.1874893053        9.3735985622
 Zn        14.6692404285       14.7224739721        8.0500468151
 Br        13.3487485026       13.4133207023        9.3632983175
 Zn        14.6675749868        3.9013551130       18.8632328352
 Br        13.3527498783        2.5867948905       20.1766234280
 Zn         3.8585247855       14.7332797041       18.8763822767
 Br         2.5440911833       13.4199818058       20.1916086753
 Zn         3.8439666008        3.9169764152        8.0578822157
 Br         2.5309867068        2.6044400937        9.3758108031
 Zn         7.9981886159        8.0527401651        8.0527435343
 Br         9.3700065438        9.3373485845        9.3373500271
 Zn         8.0035437274       18.8750467159       18.8750425787
 Br         9.3210233287       20.1879062949       20.1878994996
 Zn        18.8102291189        8.0467550396       18.8694148010
 Br        20.1250025688        9.3599942163       20.1841110589
 Zn        18.8102255886       18.8694086364        8.0467522322
 Br        20.1250011368       20.1841107588        9.3599928800
 Zn        14.6692419822        8.0500458991       14.7224741062
 Br        13.3487491267        9.3632961655       13.4133196054
 Zn        14.6675743111       18.8632301101        3.9013579487
 Br        13.3527504364       20.1766244777        2.5867966210
 Zn         3.8439630511        8.0578848817        3.9169770605
 Br         2.5309863802        9.3758111507        2.6044410363
 Zn         3.8585484334       18.8763596990       14.7333057829
 Br         2.5441036435       20.1916001827       13.4199894383
 Zn         7.9982791263       14.7288202461       14.7288197250
 Br         9.3053280972       13.4108125716       13.4108079223
 Zn         7.9758905400        3.9075693990        3.9075725372
 Br         9.2869690637        2.5913592008        2.5913602957
 Zn        18.8152999232       14.7220407432        3.9052213663
 Br        20.1289714861       13.4069305838        2.5913616288
 Zn        18.8152960284        3.9052243470       14.7220478114
 Br        20.1289691332        2.5913623330       13.4069307572
 Zn         5.9156239639        5.9909026283       16.8072892069
 Zn        16.7558212613       16.7912593614       16.7913198834
 Zn        16.7285671860        5.9692769059        5.9692805392
 Zn         5.9155983193       16.8072261330        5.9909261044
 Zn         5.9107584020        5.9893911801        5.9893987026
 Zn        16.7365703240       16.7892265126        5.9715942063
 Zn         5.9359841751       16.8093669901       16.8094426398
 Zn        16.7365749876        5.9716018789       16.7892683271
  N         3.7345022699        5.9830427655       16.8052512452
  N        14.5493187709        5.9739573000        5.9739569595
  N        18.9363427303       16.7943627308       16.7943692125
  N         8.1048817885       16.8046389587        5.9929787601
  N        18.9172767534        5.9721505899        5.9721406324
  N         8.1048850244        5.9930729769       16.8047536086
  N         3.7344968324       16.8051782582        5.9830877937
  N        14.5655115670       16.7953728486       16.7955568165
  N        16.7326246630        3.7877629232        5.9732614661
  N        16.7501640870       14.6100204900       16.7942106737
  N        16.7514709083       18.9793287961       16.7944403922
  N        16.7343912302        8.1584631326        5.9723663040
  N         5.9197364304       18.9894022762        5.9890980380
  N         5.9159821722        8.1700052789       16.7980020790
  N         5.9225676165        3.8018786788       16.8044411351
  N         5.9208746191       14.6187617809        5.9818317261
  N         5.9226224397       16.8043808201        3.8018824786
  N         5.9208909345        5.9818211112       14.6187718846
  N        16.7514157519       16.7943640472       18.9793370053
  N        16.7343924099        5.9723735154        8.1584598313
  N         5.9197767403        5.9891335709       18.9894081447
  N         5.9158442448       16.7978625910        8.1700116564
  N        16.7326237712        5.9732687083        3.7877604217
  N        16.7502267366       16.7941291997       14.6100289174
  N         5.9108878434        3.7998935072        5.9861405375
  N         5.9295707401       14.6199637268       16.8040684970
  N        16.7381653981       18.9776183565        5.9739501758
  N        16.7404606066        8.1599023757       16.7945270404
  N         5.9326720435       18.9910998322       16.8045580922
  N         5.9176701591        8.1688918853        5.9904270940
  N        16.7401010716        3.7896292522       16.7914620934
  N        16.7411919804       14.6087358411        5.9768724067
  N         3.7467410762       16.8073504397       16.8073781318
  N        14.5550643216       16.7921181048        5.9746042317
  N        18.9243752614       16.7955543769        5.9748889764
  N         8.1151222974       16.8020416395       16.8023327834
  N        18.9243731109        5.9748574374       16.7956079583
  N         8.0989524145        5.9779244596        5.9779246676
  N         3.7278253183        5.9857437121        5.9857360938
  N        14.5550656632        5.9747102275       16.7922233741
  N        16.7381552070        5.9739661543       18.9776230386
  N        16.7405201314       16.7944598950        8.1598981591
  N        16.7400379771       16.7913889214        3.7896241270
  N        16.7412050513        5.9768911364       14.6087414817
  N         5.9108933495        5.9861561263        3.7998917484
  N         5.9294488783       16.8039196961       14.6199862453
  N         5.9327745542       16.8044372153       18.9911212748
  N         5.9176748016        5.9904249959        8.1688888957
  C        11.3377457167       15.7413276618       15.7411489868
  H        11.3361081000       14.9657107196       14.9656597197
  C        11.3230053162        4.9177684646        4.9177700789
  H        11.3224256409        4.1422994575        4.1423009082
  C         0.5126765843       15.7443298476        4.9200974716
  H         0.5156038712       14.9691292637        4.1443262422
  C         0.5126820129        4.9201357096       15.7442963869
  H         0.5156055808        4.1443330817       14.9691228142
  C        11.3310958582        7.0432710103       15.7426995535
  H        11.3325480336        7.8194166877       14.9678979976
  C        11.3292163156       17.8554590004        4.9258056100
  H        11.3283471147       18.6299396154        4.1492845638
  C         0.5026445973        7.0361987568        4.9212298126
  H         0.5025918491        7.8120045214        4.1460154272
  C         0.5212916008       17.8593097300       15.7442838198
  H         0.5213932951       18.6348733684       14.9689137500
  C        11.3310917186       15.7427544107        7.0433263711
  H        11.3325489113       14.9678910405        7.8194166640
  C        11.3292237966        4.9257424454       17.8554104137
  H        11.3283532798        4.1492859260       18.6299430976
  C         0.5212847463       15.7442788035       17.8593140993
  H         0.5213825221       14.9689057359       18.6348807510
  C         0.5026437108        4.9212261572        7.0362012080
  H         0.5025910514        4.1460162208        7.8120017682
  C        11.3258550998        7.0326094656        7.0326097412
  H        11.3252029915        7.8081312459        7.8081306516
  C        11.3422888628       17.8562346769       17.8560559681
  H        11.3441616051       18.6317152070       18.6316637335
  C         0.5065947681        7.0361095809       17.8584947472
  H         0.5037532754        7.8119497913       18.6335990486
  C         0.5065907216       17.8585314144        7.0360742151
  H         0.5037518690       18.6336043310        7.8119408951
  C        15.6882869899       11.3867469372       15.7365959491
  H        14.9128449918       11.3881435893       14.9611046466
  C        15.6770786966        0.5618621188        4.9164924838
  H        14.9014389330        0.5610342043        4.1411151892
  C         4.8561176271       11.3927056683        4.9342134507
  H         4.0757132481       11.3914242787        4.1636771240
  C         4.8715886849        0.5745877393       15.7463444939
  H         4.0960508678        0.5729829651       14.9708453318
  C        15.6812453648       11.3842015106        7.0330239180
  H        14.9058768130       11.3843039360        7.8086679726
  C        15.6882944676        0.5631744276       17.8503236174
  H        14.9127927570        0.5617853375       18.6257798245
  C         4.8650979620       11.3959313776       17.8584227373
  H         4.0917615433       11.3968839623       18.6360575854
  C         4.8597275547        0.5733962161        7.0477499924
  H         4.0856774954        0.5720918472        7.8246645161
  C         6.9745629410       11.3934364202       15.7376144261
  H         7.7476491524       11.3924077155       14.9597505576
  C         6.9707310537        0.5754884244        4.9286247022
  H         7.7447068710        0.5770130768        4.1516094473
  C        17.7959470913       11.3834135798        4.9176616193
  H        18.5711319855       11.3830159825        4.1418452015
  C        17.8032961278        0.5660702496       15.7351734410
  H        18.5786449971        0.5674758234       14.9595670243
  C         6.9866171512       11.3943884533        7.0339099616
  H         7.7697496248       11.3963022407        7.8014865804
  C         6.9857440269        0.5780496170       17.8619049618
  H         7.7609416380        0.5796005835       18.6377736415
  C        17.8032123337       11.3835707032       17.8518927937
  H        18.5787265655       11.3821634112       18.6273467596
  C        17.7917787241        0.5639381243        7.0319588162
  H        18.5671729546        0.5649046063        7.8075695806
  C        15.6882529951       15.7366369856       11.3867547224
  H        14.9128430786       14.9611011741       11.3881454266
  C        15.6770773678        4.9164816048        0.5618716865
  H        14.9014415201        4.1411166793        0.5610377879
  C         4.8714880302       15.7463855264        0.5746150196
  H         4.0960387123       14.9708807873        0.5730027597
  C         4.8561122260        4.9342235959       11.3927201109
  H         4.0757075153        4.1636775835       11.3914291722
  C         6.9746414595       15.7377522895       11.3934553745
  H         7.7477009635       14.9597660568       11.3924168753
  C         6.9707276051        4.9286010360        0.5755046373
  H         7.7447053085        4.1516117364        0.5770221806
  C        17.8033447184       15.7352065046        0.5660819793
  H        18.5786474391       14.9595703139        0.5674822619
  C        17.7959389108        4.9176548201       11.3834210087
  H        18.5711296126        4.1418430670       11.3830175171
  C        15.6812439853        7.0330120117       11.3842085434
  H        14.9058742553        7.8086686944       11.3843054951
  C        15.6883320057       17.8503693292        0.5631842996
  H        14.9128006857       18.6257802515        0.5617884879
  C         4.8597088224        7.0477418779        0.5734104752
  H         4.0856816791        7.8246611291        0.5720955875
  C         4.8652394097       17.8584964363       11.3959576759
  H         4.0917837336       18.6361017909       11.3969039811
  C         6.9866005495        7.0339100072       11.3943993066
  H         7.7697476460        7.8014924205       11.3963068824
  C         6.9857034349       17.8620055032        0.5780736818
  H         7.7609014055       18.6377798368        0.5796130973
  C        17.7917846443        7.0319567761        0.5639490419
  H        18.5671717757        7.8075699244        0.5649086578
  C        17.8031697104       17.8519239882       11.3835793299
  H        18.5787289473       18.6273454155       11.3821677099
 Kr         6.0318066800       10.7642081862       10.7642078969
