     409
 i =     176, E =    -5136.7097142776
  N         2.8511755384        5.2069009494       16.0216587872
  C         1.5327514101        5.4769488785       16.2895897818
  N        13.6575831136        5.2007169373        5.2007712124
  C        12.3404493735        5.4721906568        5.4722162828
  N        19.5384032149       17.5708708523       16.0141020586
  C        20.8565000766       17.3024296354       16.2866496194
  N         8.7103570480       17.5780131616        5.2062536367
  C        10.0280160784       17.3053546484        5.4745091976
  N        19.5226465130        5.1990120406        6.7555461345
  C        20.8404130846        5.4740012101        6.4897420855
  N         8.7102047550        5.2062878410       17.5779689704
  C        10.0278435270        5.4745370052       17.3053234053
  N         2.8479967257       17.5776637875        6.7639089501
  C         1.5305212735       17.3051307160        6.4927151512
  N        13.6771825923       17.5723285958       17.5723943634
  C        12.3590224542       17.3030266144       17.3030576105
  N        15.8072727584        3.0434380513        5.1993904581
  C        16.0779578368        1.7258176769        5.4707733296
  N        15.8255108590       13.8624215654       16.0136109413
  C        16.0944276871       12.5448934333       16.2840222917
  N        15.8277153278       19.7257750586       17.5702677012
  C        16.0937448240       21.0438379904       17.2977884499
  N        15.8126657830        8.9066539019        6.7557304941
  C        16.0837506885       10.2239703335        6.4854777431
  N         6.5583251602       19.7365117872        5.2086730676
  C         6.2858639045       21.0539659770        5.4785915157
  N         6.5602318646        8.9144156534       16.0211341403
  C         6.2915692429       10.2319552174       16.2916467107
  N         6.5588258449        3.0534377034       17.5808808477
  C         6.2918728563        1.7354213077       17.3092150570
  N         6.5573050471       13.8695134291        6.7630078480
  C         6.2859608870       12.5523766143        6.4929420640
  N         5.0048313440       16.0236609134        3.0517286296
  C         5.2772590920       16.2930361750        1.7342314381
  N         5.0027675115        5.2063493869       13.8711657246
  C         5.2708031985        5.4770592786       12.5533731087
  N        17.3810669552       16.0120787768       19.7274391821
  C        17.1080690770       16.2808318096       21.0450461144
  N        17.3676325822        5.1986996110        8.9057575165
  C        17.0986574022        5.4692253232       10.2233646817
  N         5.0027893164        6.7654700930       19.7345782730
  C         5.2706010216        6.4948254465       21.0526889888
  N         5.0058588203       17.5788462997        8.9154514055
  C         5.2771352156       17.3083835247       10.2326509609
  N        17.3645603253        6.7548142026        3.0447200821
  C        17.0940208856        6.4858418522        1.7269054436
  N        17.3814894121       17.5696490480       13.8616105707
  C        17.1100671504       17.2995556706       12.5442865559
  N         4.9937341690        3.0523335652        6.7634017507
  C         5.2657928381        1.7347196239        6.4937609436
  N         5.0115175944       13.8711345112       17.5793009100
  C         5.2798158773       12.5534644538       17.3085306734
  N        17.3721262752       19.7275539634        6.7543158110
  C        17.0982880415       21.0449732078        6.4856904098
  N        17.3754573912        8.9055361936       17.5710187298
  C        17.1070220054       10.2232254111       17.3001448745
  N         5.0129931722       19.7345917594       16.0217496500
  C         5.2816636804       21.0525415043       16.2919981700
  N         4.9963005252        8.9152503868        5.2066469359
  C         5.2677907028       10.2325006405        5.4770755824
  N        17.3734231415        3.0448861685       16.0116520825
  C        17.1036630999        1.7268899361       16.2806721162
  N        17.3734983472       13.8615033110        5.1999561612
  C        17.1015671326       12.5442522987        5.4697216715
  N         2.8576128769       16.0235221948       17.5801043322
  C         1.5396005151       16.2915479450       17.3071762645
  N        13.6671918796       16.0152804616        6.7563519098
  C        12.3496075857       16.2867012952        6.4872591890
  N        19.5326715014       16.0146696678        5.2002005461
  C        20.8500993013       16.2859631146        5.4731896261
  N         8.7170444744       16.0203963457       16.0203562151
  C        10.0351750499       16.2896937865       16.2896750095
  N        19.5290699631        6.7558322426       17.5724377129
  C        20.8475947173        6.4885268876       17.3021591364
  N         8.7040970526        6.7614844089        6.7614519720
  C        10.0210443573        6.4900785134        6.4900642260
  N         2.8403645631        6.7663526971        5.2101352015
  C         1.5225629303        6.4953292992        5.4797131218
  N        13.6670629363        6.7563121516       16.0153199441
  C        12.3494612636        6.4872530791       16.2867096518
  N        15.8166213072        5.1976697507       19.7254289456
  C        16.0826698915        5.4698515028       21.0436825417
  N        15.8204609245       16.0142696454        8.9068418785
  C        16.0918458145       16.2842209143       10.2240865621
  N        15.8182327091       17.5685006398        3.0433338596
  C        16.0889230850       17.2968907963        1.7258438745
  N        15.8174709534        6.7563029300       13.8627470981
  C        16.0861598446        6.4856140213       12.5451312316
  N         6.5490205930        5.2068032174        3.0534507775
  C         6.2808021301        5.4778131492        1.7356239240
  N         6.5647813603       16.0214726176       13.8699119688
  C         6.2940300569       16.2917152278       12.5526409859
  N         6.5680273476       17.5789016713       19.7358728207
  C         6.2968860031       17.3082560115       21.0534752440
  N         6.5525345616        6.7628618839        8.9143067790
  C         6.2833837093        6.4927446607       10.2317283937
  N        19.5292277719       17.5723918884        6.7559145966
  C        20.8477358188       17.3021592916        6.4885364981
  N         8.7194741917       17.5770810914       17.5770182974
  C        10.0369019163       17.3054351209       17.3054077663
  N         2.8403932241        5.2101969191        6.7662856440
  C         1.5225806119        5.4797576787        6.4952832073
  N        13.6671884508        5.1994606595       17.5708297650
  C        12.3495064564        5.4714469881       17.3021295574
  N         2.8575803159       17.5801706087       16.0234301297
  C         1.5395806938       17.3072256713       16.2914878395
  N        13.6673632098       17.5707989546        5.1994786585
  C        12.3496908766       17.3021110453        5.4714575175
  N        19.5325219587        5.2001275128       16.0147290639
  C        20.8499610079        5.4731722879       16.2859554686
  N         8.7013812681        5.2051554724        5.2051062158
  C        10.0192383953        5.4744515335        5.4744306679
  N         6.5679951104       19.7359602000       17.5788018677
  C         6.2968030740       21.0535719435       17.3081812163
  N         6.5525668580        8.9143681549        6.7628107427
  C         6.2834336073       10.2317823325        6.4926799117
  N         6.5490129501        3.0535365885        5.2066898735
  C         6.2808211701        1.7357207443        5.4777070466
  N         6.5647426563       13.8699745078       16.0214146387
  C         6.2939700346       12.5526999544       16.2916536255
  N        15.8180095236        3.0432641458       17.5685704708
  C        16.0887335979        1.7257686043       17.2969653952
  N        15.8175883460       13.8626748879        6.7563761997
  C        16.0862630238       12.5450629924        6.4856786713
  N        15.8168080620       19.7253559015        5.1977456732
  C        16.0828038201       21.0436038648        5.4699496499
  N        15.8203426022        8.9067688584       16.0143393951
  C        16.0917373876       10.2240188094       16.2842845075
  N        17.3719825536        6.7542048552       19.7275936183
  C        17.0981841507        6.4855812663       21.0450230797
  N        17.3755874858       17.5709415959        8.9056328082
  C        17.1071284635       17.3000669160       10.2233103771
  N         4.9937409002        6.7634984093        3.0522683153
  C         5.2657709018        6.4938643610        1.7346500429
  N         5.0115480739       17.5793729431       13.8710423633
  C         5.2798794217       17.3085984491       12.5533891825
  N        17.3736070478       16.0115571541        3.0449324567
  C        17.1038258246       16.2805911063        1.7269463944
  N        17.3733703235        5.1998775693       13.8615918809
  C        17.1014665087        5.4696436552       12.5443288877
  N         5.0130208176       16.0218497264       19.7345297156
  C         5.2817442460       16.2920778336       21.0524693639
  N         4.9962696080        5.2067124495        8.9151694966
  C         5.2677349065        5.4771482915       10.2324303517
  N        17.3810373563       19.7274056514       16.0121633646
  C        17.1079835530       21.0449917149       16.2809158678
  N        17.3676501047        8.9056622936        5.1987565460
  C        17.0987078481       10.2232842949        5.4692904963
  N         5.0046389346        3.0517941222       16.0235897602
  C         5.2770971869        1.7343093154       16.2929779617
  N         5.0029044539       13.8712491803        5.2062761341
  C         5.2709062441       12.5534421024        5.4769803240
  N        17.3645568984        3.0446704945        6.7549195588
  C        17.0940487422        1.7268514126        6.4859538107
  N        17.3814665080       13.8615286791       17.5697026617
  C        17.1100104419       12.5442073764       17.2996214704
  N         5.0029455397       19.7346464173        6.7654006021
  C         5.2707046818       21.0527606019        6.4947407770
  N         5.0057112010        8.9155298050       17.5787734210
  C         5.2770225458       10.2327191614       17.3083094879
  N        19.5226136606        6.7554869023        5.1990558932
  C        20.8403949389        6.4897159030        5.4740206230
  N         8.7103865319        6.7614380039       16.0200468979
  C        10.0279031787        6.4896234917       16.2890397320
  N         2.8478340443        6.7640088735       17.5775591484
  C         1.5303735374        6.4927871784       17.3050376252
  N        13.6601988263        6.7567906360        6.7568325263
  C        12.3422077226        6.4877842070        6.4878052723
  N         2.8513440312       16.0217794681        5.2067971270
  C         1.5328976356       16.2896768904        5.4768615445
  N        13.6743513142       16.0159031163       16.0159449231
  C        12.3571476553       16.2874046187       16.2874263758
  N        19.5384320040       16.0140552462       17.5708979513
  C        20.8565176271       16.2866397961       17.3024322813
  N         8.7105072556       16.0200957828        6.7613950112
  C        10.0280435259       16.2890602091        6.4896053859
  N         6.5590133262       17.5809387210        3.0533513173
  C         6.2920482468       17.3092783357        1.7353248202
  N         6.5571996423        6.7630704870       13.8694495707
  C         6.2858613125        6.4929988424       12.5523204263
  N         6.5581806075        5.2087466574       19.7364293626
  C         6.2857531370        5.4786882587       21.0538701662
  N         6.5603527971       16.0211958457        8.9143564929
  C         6.2916799092       16.2917001532       10.2318999170
  N        15.8277463281       17.5701740016       19.7258614874
  C        16.0938325015       17.2977080899       21.0439194655
  N        15.8126337283        6.7556773892        8.9067226048
  C        16.0836993478        6.4854134347       10.2240369311
  N        15.8072709848        5.1992868887        3.0435113230
  C        16.0779243784        5.4706694276        1.7258980261
  N        15.8255475155       16.0135618864       13.8624968096
  C        16.0944847759       16.2839581622       12.5449593709
 Zn        14.5308620591       14.7193766565       14.7194123568
 Br        13.2129996349       13.4058526897       13.4058757246
 Zn        14.5110432274        3.9033119197        3.9033837772
 Br        13.1938468906        2.5898193087        2.5898939098
 Zn         3.7122922802       14.7273006075        3.9082125392
 Br         2.3930477810       13.4136631066        2.5961048831
 Zn         3.7120964871        3.9083046607       14.7272221567
 Br         2.3928760184        2.5962071893       13.4135458064
 Zn         7.8517539956        8.0574288833       14.7233096204
 Br         9.1688895940        9.3710317614       13.4091783151
 Zn         7.8504658291       18.8767409052        3.9118372310
 Br         9.1688755050       20.1893683627        2.5977501282
 Zn        18.6618712508        8.0495645720        3.9019276659
 Br        19.9767036485        9.3637823845        2.5864311078
 Zn        18.6743608564       18.8674655141       14.7189880256
 Br        19.9912820953       20.1784470858       13.4015463764
 Zn         7.8518531944       14.7233400751        8.0573959294
 Br         9.1689567596       13.4092016246        9.3710071092
 Zn         7.8503118320        3.9119028742       18.8766842786
 Br         9.1686743022        2.5977775125       20.1893293412
 Zn        18.6743904016       14.7189237068       18.8674764070
 Br        19.9912800446       13.4014527764       20.1784806346
 Zn        18.6618873026        3.9019016443        8.0496477273
 Br        19.9766699782        2.5863827199        9.3638849419
 Zn        14.5162684740        8.0527238049        8.0527594478
 Br        13.2041353218        9.3686775191        9.3687046581
 Zn        14.5389818231       18.8687198420       18.8688218682
 Br        13.2211944687       20.1824357061       20.1825347764
 Zn         3.7091198897        8.0587031002       18.8739683189
 Br         2.3953905986        9.3766040802       20.1874263910
 Zn         3.7093170443       18.8740442827        8.0586576701
 Br         2.3955510123       20.1875136612        9.3764967751
 Zn        14.5231634443       14.7196326626        8.0530696237
 Br        13.2084743523       13.4053997218        9.3685252881
 Zn        14.5243080887        3.9014320429       18.8663777111
 Br        13.2073494274        2.5872572453       20.1798572176
 Zn         3.7200033228       14.7268977220       18.8756472637
 Br         2.4026517533       13.4135547085       20.1901757561
 Zn         3.6981798323        3.9106719404        8.0581355878
 Br         2.3845826574        2.5982511388        9.3765419946
 Zn         7.8473960721        8.0576346485        8.0576001541
 Br         9.1654646113        9.3709863170        9.3709601588
 Zn         7.8597603215       18.8744945738       18.8744083108
 Br         9.1808976212       20.1865325529       20.1864375610
 Zn        18.6668170027        8.0494487733       18.8703161696
 Br        19.9849260653        9.3641027924       20.1823247777
 Zn        18.6669258364       18.8702469512        8.0495356988
 Br        19.9850521072       20.1822239276        9.3642080614
 Zn        14.5230159040        8.0530359178       14.7196656316
 Br        13.2083886159        9.3685067387       13.4054122206
 Zn        14.5246359205       18.8663140531        3.9014646914
 Br        13.2076271361       20.1797925542        2.5873008798
 Zn         3.6981731638        8.0582035038        3.9106170453
 Br         2.3846207550        9.3766471904        2.5981825155
 Zn         3.7199844015       18.8756836612       14.7267956113
 Br         2.4026792653       20.1902274859       13.4134297566
 Zn         7.8565033448       14.7239266806       14.7238959568
 Br         9.1721878076       13.4093167393       13.4092905579
 Zn         7.8424418621        3.9090325458        3.9089361016
 Br         9.1574482229        2.5942911824        2.5942135094
 Zn        18.6692529539       14.7188744906        3.9044242020
 Br        19.9829576994       13.4016102372        2.5902757533
 Zn        18.6691326848        3.9043385823       14.7189402285
 Br        19.9828112895        2.5901553133       13.4017197910
 Zn         5.7832545960        5.9892656389       16.8050151108
 Zn        16.6072404097       16.7890922320       16.7891876050
 Zn        16.5932649111        5.9733242250        5.9734530306
 Zn         5.7833707417       16.8051337762        5.9891777077
 Zn         5.7761234895        5.9889779619        5.9888849655
 Zn        16.6013088339       16.7893427021        5.9741964100
 Zn         5.7892093499       16.8049182800       16.8047906378
 Zn        16.6011843471        5.9740452312       16.7894557122
  N         3.5961724614        5.9856841580       16.8008931389
  N        14.4057502539        5.9781098413        5.9781712731
  N        18.7919363460       16.7912949260       16.7913428626
  N         7.9640245376       16.8001023381        5.9848305921
  N        18.7760675755        5.9746855488        5.9747542998
  N         7.9638485731        5.9848790928       16.8000441095
  N         3.5962961971       16.8010089809        5.9855670524
  N        14.4224568643       16.7935070871       16.7935748597
  N        16.5861281713        3.7906459256        5.9764037299
  N        16.6041592032       14.6086330211       16.7915000385
  N        16.6062341965       18.9794553320       16.7923632999
  N        16.5897117828        8.1593019619        5.9771267967
  N         5.7818955963       18.9889005072        5.9873424709
  N         5.7823904022        8.1684346182       16.7999617867
  N         5.7803183902        3.7996669169       16.8028490453
  N         5.7809885443       14.6173868452        5.9845059862
  N         5.7805119739       16.8029150183        3.7995539846
  N         5.7808538338        5.9845690760       14.6173451106
  N        16.6062459468       16.7922571319       18.9795197846
  N        16.5897032991        5.9770738200        8.1593818754
  N         5.7817172669        5.9874119365       18.9887876913
  N         5.7825343182       16.8000305198        8.1683964644
  N        16.5861511630        5.9763085011        3.7907133373
  N        16.6041600466       16.7914409618       14.6087084410
  N         5.7705517045        3.7999480898        5.9847035997
  N         5.7887723511       14.6175416656       16.8005644800
  N        16.5966736143       18.9794263186        5.9749178700
  N        16.5972077529        8.1593205553       16.7928563112
  N         5.7909821836       18.9886006836       16.8004089100
  N         5.7739334464        8.1682578096        5.9847589688
  N        16.5957073067        3.7907228942       16.7908636420
  N        16.5964678524       14.6086862999        5.9784049083
  N         3.6041099425       16.8031373704       16.8030536548
  N        14.4141052190       16.7923172239        5.9771610937
  N        18.7844741754       16.7933215388        5.9766451481
  N         7.9718765216       16.7993379484       16.7992715208
  N        18.7843528691        5.9765397569       16.7934148385
  N         7.9561531104        5.9838933533        5.9838398343
  N         3.5872976579        5.9884695893        5.9883871874
  N        14.4139243878        5.9771189624       16.7923654842
  N        16.5964856952        5.9748312294       18.9795159488
  N        16.5973440800       16.7927855605        8.1593803554
  N        16.5959183427       16.7907818269        3.7908189975
  N        16.5963334294        5.9783272403       14.6087371746
  N         5.7705832432        5.9847973564        3.7998705795
  N         5.7887941104       16.8006264725       14.6174654481
  N         5.7909739254       16.8005139091       18.9885183271
  N         5.7739265297        5.9848245757        8.1681900826
  C        11.1951205486       15.7391070822       15.7391085251
  H        11.1936383314       14.9636438151       14.9636446189
  C        11.1788534298        4.9237621537        4.9237639694
  H        11.1772711777        4.1483267610        4.1483281189
  C         0.3732071778       15.7382886899        4.9262643416
  H         0.3762613053       14.9626901460        4.1510405199
  C         0.3730538844        4.9263126052       15.7382276453
  H         0.3761155599        4.1511077446       14.9626176908
  C        11.1887237445        7.0378250057       15.7382107119
  H        11.1887280746        7.8132085543       14.9626877177
  C        11.1889087460       17.8532110668        4.9235766226
  H        11.1889930518       18.6287590288        4.1482494524
  C         0.3615418343        7.0428745258        4.9285070302
  H         0.3619719197        7.8191998281        4.1539569998
  C         0.3781146898       17.8542422824       15.7402339071
  H         0.3786429564       18.6303592829       14.9654943079
  C        11.1888436715       15.7382212264        7.0378150250
  H        11.1888265650       14.9626984204        7.8131995924
  C        11.1887323501        4.9235831924       17.8532081759
  H        11.1887818881        4.1482578238       18.6287551652
  C         0.3781616977       15.7402558937       17.8542238608
  H         0.3787337217       14.9655115552       18.6303480841
  C         0.3615969640        4.9285208864        7.0428650901
  H         0.3620710783        4.1539727435        7.8191901953
  C        11.1827297089        7.0385636708        7.0385669057
  H        11.1841544503        7.8140100691        7.8140128958
  C        11.1990449849       17.8535477838       17.8535496874
  H        11.2007570143       18.6289552852       18.6289567767
  C         0.3674635487        7.0402082481       17.8525319249
  H         0.3653243991        7.8157845876       18.6278837240
  C         0.3676208035       17.8525856053        7.0401612073
  H         0.3654802409       18.6279463385        7.8157205549
  C        15.5434219519       11.3849884034       15.7343523032
  H        14.7679431129       11.3858521932       14.9588972991
  C        15.5301492235        0.5638443893        4.9217775283
  H        14.7540754657        0.5627815844        4.1469318045
  C         4.7196268849       11.3937178693        4.9274377898
  H         3.9441030948       11.3947628947        4.1521041953
  C         4.7300521023        0.5726877380       15.7427910903
  H         3.9542332936        0.5717457919       14.9676549345
  C        15.5355825821       11.3850153944        7.0354690942
  H        14.7605878693       11.3858538515        7.8113684234
  C        15.5415972358        0.5639035726       17.8466707802
  H        14.7663073174        0.5627950934       18.6223197044
  C         4.7293444166       11.3937196720       17.8587169803
  H         3.9547109474       11.3946025734       18.6349637375
  C         4.7189849608        0.5729084995        7.0439210586
  H         3.9438294890        0.5718331957        7.8196607838
  C         6.8420043984       11.3918058088       15.7413235737
  H         7.6168584850       11.3909879602       14.9652261923
  C         6.8323874330        0.5757769202        4.9283188845
  H         7.6072542060        0.5776207309        4.1523000818
  C        17.6494284521       11.3831820496        4.9195465014
  H        18.4244779093       11.3823733822        4.1436912334
  C        17.6540703552        0.5668675560       15.7301734788
  H        18.4283771096        0.5687260319       14.9536272196
  C         6.8344292660       11.3914987771        7.0426504341
  H         7.6100664350       11.3905613712        7.8179543717
  C         6.8436611489        0.5754047619       17.8582611806
  H         7.6187092536        0.5772059654       18.6340657489
  C        17.6583007643       11.3831247246       17.8493740977
  H        18.4340683928       11.3822764694       18.6244824814
  C        17.6450349803        0.5668135178        7.0357098964
  H        18.4204240954        0.5686250119        7.8111902048
  C        15.5434908337       15.7342778439       11.3850512115
  H        14.7680064730       14.9588294159       11.3858964131
  C        15.5300751210        4.9216884542        0.5639345849
  H        14.7539989810        4.1468433584        0.5629093315
  C         4.7301839313       15.7428634326        0.5726334780
  H         3.9543590301       14.9677220913        0.5717162857
  C         4.7195323070        4.9275138779       11.3936270554
  H         3.9440018159        4.1521955886       11.3946584259
  C         6.8420754852       15.7413868923       11.3917547046
  H         7.6169318133       14.9652761043       11.3909537804
  C         6.8323375112        4.9284158072        0.5756764022
  H         7.6072007726        4.1524079055        0.5774890647
  C        17.6542065324       15.7300797037        0.5668982464
  H        18.4285098348       14.9535329667        0.5687318963
  C        17.6493390730        4.9194807230       11.3832807526
  H        18.4243858576        4.1436155794       11.3824813028
  C        15.5355140742        7.0353991663       11.3850762727
  H        14.7605160216        7.8113112552       11.3858979055
  C        15.5417403249       17.8466114603        0.5639962143
  H        14.7664726179       18.6222643071        0.5629237407
  C         4.7189202738        7.0440306008        0.5728533913
  H         3.9437825198        7.8197732870        0.5718070449
  C         4.7294469669       17.8587844462       11.3936283872
  H         3.9548140429       18.6350477736       11.3944952204
  C         6.8343641243        7.0427129567       11.3914486858
  H         7.6100015830        7.8180049468       11.3905274007
  C         6.8437958860       17.8583149233        0.5753025406
  H         7.6188620367       18.6341144586        0.5770750392
  C        17.6449793822        7.0355831154        0.5668466034
  H        18.4203973062        7.8110558247        0.5686311372
  C        17.6583909955       17.8493015495       11.3832221592
  H        18.4341512024       18.6243921249       11.3823860148
 Kr        21.2671707095       10.7524537873       10.7526046542
