     409
 i =     176, E =    -5136.7067414824
  N         2.9705030472        5.2386021354       15.9694584025
  C         1.6497474749        5.4944556074       16.2406362511
  N        13.8143683875        5.1025501171        5.1026708084
  C        12.4925309345        5.3643716078        5.3646906889
  N        19.6081796385       17.5426215483       15.9879614966
  C        20.9254644873       17.2865813597       16.2711121718
  N         8.8266327003       17.5862974839        5.2141542657
  C        10.1445309670       17.2869874163        5.4520478549
  N        19.6661199728        5.1809648401        6.7366550119
  C        20.9835773131        5.4634560453        6.4791930926
  N         8.8267368633        5.2138776500       17.5865423421
  C        10.1446308389        5.4517074271       17.2871551360
  N         2.9562030888       17.5388064596        6.7799849223
  C         1.6412667085       17.2636004992        6.5025809159
  N        13.7559440548       17.6041658763       17.6042123119
  C        12.4314862655       17.3487522028       17.3488174592
  N        15.9983351185        2.9878598028        5.1360131495
  C        16.2588910493        1.6727150328        5.4212231134
  N        15.8545606778       13.8565632853       16.0200689506
  C        16.1314085906       12.5363589146       16.2784077276
  N        15.9403210779       19.7244258761       17.5694342459
  C        16.2139525840       21.0390005837       17.2894083873
  N        15.9265651481        8.8480461351        6.6900565879
  C        16.2007231798       10.1687658823        6.4352521842
  N         6.6340357259       19.7031071111        5.2016103379
  C         6.3585335146       21.0203657595        5.4598829879
  N         6.6520255989        8.9505434151       16.0293674406
  C         6.3701402849       10.2674985412       16.2987194699
  N         6.6660625329        3.0891064406       17.5410700750
  C         6.3831536496        1.7727844822       17.2838696442
  N         6.7176410058       13.8257363859        6.8448999082
  C         6.4559463051       12.5093296651        6.5524231136
  N         5.1291607659       15.9665988620        3.0889859781
  C         5.3792943836       16.2566693955        1.7707876115
  N         5.1583676694        5.2903923500       13.8403083393
  C         5.4361419170        5.5411957488       12.5211515469
  N        17.4777276743       15.9962883105       19.7092759745
  C        17.2189301860       16.2632196796       21.0298967512
  N        17.4915250990        5.1439583155        8.8603155071
  C        17.2212417154        5.4241206534       10.1756481360
  N         5.0882166531        6.7660375345       19.7102263456
  C         5.3514016565        6.4833853824       21.0266231610
  N         5.0916391157       17.5812287221        8.9393999583
  C         5.3523286885       17.3125513744       10.2594670606
  N        17.5352367310        6.7099923379        2.9952638520
  C        17.2618266259        6.4493621601        1.6761702236
  N        17.4383221590       17.5482971037       13.8508070129
  C        17.1650984099       17.2758884266       12.5347011148
  N         5.0965246425        3.0280761174        6.7350601125
  C         5.3545039796        1.7073353532        6.4680138851
  N         5.0743244080       13.8985945019       17.6084693119
  C         5.3424095572       12.5824539556       17.3267995305
  N        17.4962499934       19.6769644721        6.7548780722
  C        17.2422312899       20.9949782034        6.4714571163
  N        17.4676590351        8.8979052437       17.5189841205
  C        17.1790469859       10.2139273800       17.2619925330
  N         5.0706875971       19.7696634288       16.0469913373
  C         5.3516905190       21.0890007811       16.2979243097
  N         5.1708522050        8.8889632735        5.1910913175
  C         5.4410525869       10.2011383691        5.4878685897
  N        17.5010759279        3.0283731833       15.9741811247
  C        17.2299827487        1.7117269121       16.2512939797
  N        17.5014870582       13.8153156347        5.1822301156
  C        17.2283543921       12.4966602767        5.4437187016
  N         2.9227078365       16.0458571135       17.6015585677
  C         1.6054450316       16.2997297346       17.3154270268
  N        13.7798935485       15.9364436814        6.6810511470
  C        12.4641609380       16.2170657339        6.4127614310
  N        19.6507141905       15.9693874344        5.1991531489
  C        20.9671997484       16.2407116161        5.4765107398
  N         8.7734490448       16.0911733514       16.0912741756
  C        10.0933047331       16.3543784885       16.3544878744
  N        19.6411919211        6.7557782826       17.5253550895
  C        20.9603106662        6.4905387224       17.2582996026
  N         8.8564554722        6.6503796365        6.6508087231
  C        10.1704259114        6.3752466675        6.3758149541
  N         2.9821088693        6.7684175413        5.2123710358
  C         1.6644661335        6.4943302178        5.4786146899
  N        13.7799603363        6.6807610282       15.9364960070
  C        12.4642445499        6.4123712758       16.2171068843
  N        15.9590329012        5.1822101096       19.6786430945
  C        16.2390660661        5.4436685119       20.9947845579
  N        15.8867267096       15.9878403804        8.8913358020
  C        16.1464692932       16.2632565787       10.2116892021
  N        15.9533215465       17.5377078820        3.0371829930
  C        16.2210132988       17.2734949402        1.7188272111
  N        15.9470526400        6.7388502077       13.8088965988
  C        16.2122361201        6.4586468683       12.4916888017
  N         6.6287762534        5.1560644744        3.0110180677
  C         6.3562797738        5.4385609569        1.6977215949
  N         6.6315182917       16.0547900435       13.9101811719
  C         6.3586658743       16.3121187714       12.5904930063
  N         6.6113162237       17.6182921287       19.7776186326
  C         6.3570639552       17.3239821164       21.0933364603
  N         6.7476901157        6.7265291514        8.8621261501
  C         6.4686796812        6.4923378795       10.1844591112
  N        19.6410933831       17.5252277088        6.7558102561
  C        20.9602132151       17.2582135511        6.4905465790
  N         8.7889137546       17.6466354191       17.6466277875
  C        10.1059573797       17.3700793098       17.3701246423
  N         2.9821698880        5.2124485876        6.7685985825
  C         1.6645040511        5.4785689053        6.4945104639
  N        13.7872250400        5.1725241481       17.5382981689
  C        12.4675030716        5.4301303156       17.2642491398
  N         2.9226979857       17.6015698801       16.0458330869
  C         1.6054372118       17.3154309725       16.2997210969
  N        13.7871084222       17.5380953948        5.1726516073
  C        12.4673957585       17.2641045010        5.4303978831
  N        19.6508077306        5.1991410913       15.9695011539
  C        20.9672980049        5.4765243854       16.2407760956
  N         8.8444112091        5.0963823408        5.0963947593
  C        10.1667511189        5.3598837200        5.3601638566
  N         6.6112729680       19.7776367761       17.6182681317
  C         6.3570179398       21.0933524118       17.3239556859
  N         6.7470845892        8.8620861380        6.7257585452
  C         6.4680541572       10.1844306779        6.4916717101
  N         6.6288286260        3.0110641840        5.1562189845
  C         6.3563056721        1.6977673448        5.4387234532
  N         6.6314828411       13.9101758691       16.0546975290
  C         6.3585817380       12.5905063600       16.3120675559
  N        15.9533824994        3.0371179930       17.5378466894
  C        16.2210434428        1.7187673234       17.2735954192
  N        15.9469341863       13.8087639254        6.7389030438
  C        16.2120991200       12.4915526995        6.4587056029
  N        15.9589261195       19.6784921231        5.1822857186
  C        16.2389727675       20.9946356392        5.4437334073
  N        15.8867047636        8.8912431193       15.9879996029
  C        16.1464647986       10.2116031970       16.2633763824
  N        17.4963220652        6.7548422564       19.6771251324
  C        17.2423002396        6.4714153783       20.9951377998
  N        17.4676322720       17.5188729781        8.8979715986
  C        17.1790244311       17.2618984901       10.2139988558
  N         5.0963617144        6.7347951577        3.0279850382
  C         5.3544230337        6.4677930025        1.7072633466
  N         5.0743153411       17.6085129868       13.8985191516
  C         5.3424594058       17.3268219270       12.5823940554
  N        17.5010041493       15.9740256910        3.0284237884
  C        17.2299472998       16.2511874936        1.7117788583
  N        17.5015528639        5.1821309265       13.8154789400
  C        17.2284513895        5.4436188280       12.4968158033
  N         5.0706986250       16.0470520420       19.7696355409
  C         5.3517062131       16.2979796755       21.0889693667
  N         5.1715030069        5.1917487803        8.8889086699
  C         5.4417292588        5.4884750941       10.2011064990
  N        17.4777143464       19.7092297358       15.9963346162
  C        17.2189265504       21.0298484639       16.2632774156
  N        17.4914540376        8.8601649570        5.1441765182
  C        17.2211290161       10.1755022040        5.4242677640
  N         5.1292707729        3.0890660509       15.9664917452
  C         5.3793151816        1.7708360465       16.2565749075
  N         5.1577859456       13.8403723513        5.2899570151
  C         5.4355083787       12.5211902942        5.5407082575
  N        17.5352087492        2.9950790376        6.7100612219
  C        17.2617764198        1.6760004653        6.4494139689
  N        17.4383616456       13.8507383549       17.5483509981
  C        17.1651342633       12.5346300003       17.2759570698
  N         5.0881987742       19.7102446483        6.7661526423
  C         5.3514076209       21.0266528679        6.4835244701
  N         5.0916102711        8.9394598908       17.5814073687
  C         5.3522577940       10.2595189818       17.3126391896
  N        19.6660922194        6.7364438880        5.1811485379
  C        20.9835556696        6.4789981977        5.4636057290
  N         8.8259057975        6.7282319440       15.9917042100
  C        10.1435945942        6.4373483167       16.2424713920
  N         2.9562931827        6.7800348616       17.5388317688
  C         1.6413680942        6.5026017843       17.2636186315
  N        13.8004744726        6.6579320414        6.6584194637
  C        12.4874157518        6.3794958225        6.3800929688
  N         2.9703729433       15.9695663484        5.2384131211
  C         1.6496375434       16.2406874025        5.4943684968
  N        13.7246956649       16.0480682953       16.0481832371
  C        12.4133087165       16.3333163487       16.3334309857
  N        19.6081925806       15.9879303042       17.5426508858
  C        20.9254735132       16.2710929366       17.2865999088
  N         8.8258205066       15.9915803505        6.7286338254
  C        10.1435069452       16.2423959207        6.4377901044
  N         6.6660663746       17.5410608605        3.0891251346
  C         6.3831936156       17.2839026531        1.7727772812
  N         6.7181533282        6.8453816593       13.8257752608
  C         6.4565374751        6.5529523150       12.5093654305
  N         6.6340534150        5.2014908391       19.7030938461
  C         6.3585385598        5.4597579027       21.0203425727
  N         6.6520651995       16.0291989866        8.9505412394
  C         6.3702245880       16.2986448072       10.2674846132
  N        15.9403281618       17.5693875869       19.7244792523
  C        16.2139551706       17.2893500073       21.0390541118
  N        15.9267584710        6.6899795281        8.8481784522
  C        16.2009060154        6.4351795721       10.1688983059
  N        15.9983909187        5.1359153251        2.9879951107
  C        16.2589608422        5.4211500115        1.6728602608
  N        15.8545381217       16.0199885862       13.8566494958
  C        16.1313881551       16.2783226526       12.5364430618
 Zn        14.5574697214       14.7436232158       14.7437652716
 Br        13.2726095328       13.4148940298       13.4150266896
 Zn        14.7110473671        3.8266290201        3.8266933293
 Br        13.4099064707        2.5049121504        2.5049736763
 Zn         3.8563587445       14.6702841939        3.9736843318
 Br         2.5600371145       13.3333062304        2.6641767806
 Zn         3.8567469464        3.9742022087       14.6701302050
 Br         2.5605028194        2.6646851477       13.3330515963
 Zn         7.9946734795        8.1082868169       14.7688390328
 Br         9.5000823488        9.5329084207       13.8226148095
 Zn         7.9499554271       18.8613572597        3.9255379849
 Br         9.2547353562       20.1692995765        2.5967920629
 Zn        18.8096255188        8.0111293992        3.8701350913
 Br        20.1232981002        9.3361958960        2.5651015447
 Zn        18.7497526490       18.8316926903       14.6975776845
 Br        20.0667778214       20.1392916042       13.3776485241
 Zn         7.9942826576       14.7683580152        8.1081394448
 Br         9.4984219643       13.8189094594        9.5319302417
 Zn         7.9499472613        3.9252206066       18.8615277040
 Br         9.2546394622        2.5964844947       20.1695277425
 Zn        18.7497905525       14.6975382323       18.8317248114
 Br        20.0668217283       13.3776234024       20.1393305932
 Zn        18.8096274507        3.8697791125        8.0112153058
 Br        20.1234067022        2.5648463678        9.3362588248
 Zn        14.6328255973        7.9610184088        7.9611977833
 Br        13.3553530536        9.2932842564        9.2937810260
 Zn        14.6567258975       18.8819555555       18.8819961754
 Br        13.3677641504       20.2095868011       20.2096350838
 Zn         3.7941050422        8.0616163718       18.8579974946
 Br         2.4695568776        9.3530572339       20.1848559051
 Zn         3.7940929659       18.8578253677        8.0616265860
 Br         2.4696427813       20.1847620439        9.3531174453
 Zn        14.6309826807       14.6685358684        8.0083765168
 Br        13.3478094113       13.3270045805        9.3253874542
 Zn        14.6590765552        3.8932474091       18.8301467576
 Br        13.3458111691        2.5828116300       20.1503636173
 Zn         3.7819422917       14.7594588405       18.9001715731
 Br         2.4699240956       13.4402769326       20.2148201485
 Zn         3.8443638743        3.9089166374        8.0525085543
 Br         2.5283697477        2.6107198856        9.3787743430
 Zn         8.0600178287        7.9577904476        7.9570601225
 Br         9.5391710734        9.1856967483        9.1784211679
 Zn         7.8993001178       18.9300351257       18.9300091295
 Br         9.2026967796       20.2494099636       20.2494112014
 Zn        18.7735105193        8.0549752705       18.8100673926
 Br        20.0844412621        9.3723825033       20.1249128199
 Zn        18.7734689535       18.8099345420        8.0550058556
 Br        20.0844028802       20.1248166978        9.3723778507
 Zn        14.6310262392        8.0082530205       14.6686558170
 Br        13.3479140980        9.3252146806       13.3270304131
 Zn        14.6589926254       18.8299878291        3.8933277552
 Br        13.3457036655       20.1501994792        2.5829146683
 Zn         3.8440249980        8.0522962310        3.9084760593
 Br         2.5276908811        9.3780994491        2.6101434278
 Zn         3.7819191861       18.9001851497       14.7594132230
 Br         2.4698843942       20.2148956894       13.4403070028
 Zn         7.9362542455       14.7932884341       14.7932421333
 Br         9.3762245251       13.5481605118       13.5472725923
 Zn         7.9161959012        3.8322402531        3.8322674840
 Br         9.1770644427        2.4918624401        2.4919592687
 Zn        18.7920350512       14.6819018215        3.8944211409
 Br        20.1215740500       13.3852329603        2.5762159289
 Zn        18.7921349318        3.8943792884       14.6821124187
 Br        20.1216595046        2.5761818041       13.3854012812
 Zn         5.8986658035        6.0176773938       16.7782478840
 Zn        16.6692620686       16.7810886086       16.7811364402
 Zn        16.7349336807        5.9156629662        5.9159047985
 Zn         5.8985580911       16.7781163979        6.0176295112
 Zn         5.9092315415        5.9396741433        5.9394616735
 Zn        16.7156080592       16.7442451897        5.9606106757
 Zn         5.8472261869       16.8450485843       16.8449938966
 Zn        16.7156535494        5.9605580524       16.7445159916
  N         3.7104677627        6.0151733915       16.7551950090
  N        14.5540561162        5.8841913572        5.8844074291
  N        18.8608978607       16.7585315943       16.7585687603
  N         8.0801100915       16.8026221229        5.9869652167
  N        18.9194450879        5.9517333389        5.9519446420
  N         8.0802078670        5.9866759366       16.8028425379
  N         3.7103594165       16.7552448046        6.0150219045
  N        14.4868627492       16.8184305897       16.8185052624
  N        16.7692791484        3.7379967071        5.9166905251
  N        16.6460482341       14.5999379549       16.7877276639
  N        16.7047712759       18.9698617711       16.7859646498
  N        16.7086047344        8.1072438418        5.9109033763
  N         5.8652065565       18.9596527968        5.9906765433
  N         5.8778192121        8.1989884530       16.8061072896
  N         5.9060348463        3.8357597335       16.7463093813
  N         5.9327423696       14.5800272108        6.0758751690
  N         5.9059477196       16.7463469340        3.8357296757
  N         5.9332439896        6.0762988941       14.5800184731
  N        16.7047844190       16.7859230763       18.9699123838
  N        16.7087158107        5.9107345726        8.1073926527
  N         5.8652345971        5.9905635014       18.9596387857
  N         5.8778188746       16.8058866592        8.1989553533
  N        16.7693147438        5.9165972271        3.7381574496
  N        16.6460210407       16.7876676984       14.6000129532
  N         5.8672301114        3.7659189816        5.9414646388
  N         5.8545427222       14.6516390362       16.8385957997
  N        16.7206838725       18.9307154517        5.9740584556
  N        16.6858437420        8.1480162107       16.7482518350
  N         5.8339962314       19.0273455010       16.8434572021
  N         5.9609116573        8.1286348806        5.9425634033
  N        16.7277618719        3.7793571591       16.7530200805
  N        16.7253022777       14.5587426157        5.9649987390
  N         3.6691286694       16.8320174361       16.8319941014
  N        14.5303567612       16.7369837365        5.9308211213
  N        18.8995226609       16.7460246363        5.9744684133
  N         8.0345689512       16.8715661759       16.8715910285
  N        18.8996184789        5.9744300040       16.7461656101
  N         8.1031728152        5.8774468220        5.8775310153
  N         3.7286482956        5.9916258599        5.9916306523
  N        14.5304473646        5.9306712349       16.7371456814
  N        16.7207739198        5.9739987965       18.9308750278
  N        16.6858412139       16.7481021925        8.1480934132
  N        16.7276779302       16.7528485970        3.7794142538
  N        16.7253804671        5.9649239746       14.5588932989
  N         5.8670881294        5.9412570421        3.7658475373
  N         5.8545327741       16.8386709026       14.6516016806
  N         5.8340211336       16.8435029515       19.0273199565
  N         5.9615137429        5.9433088001        8.1285996013
  C        11.2442119032       15.7950636769       15.7952106459
  H        11.2261916717       15.0197511660       15.0199173949
  C        11.3315759032        4.8120995699        4.8122762303
  H        11.3368920435        4.0367145230        4.0366474519
  C         0.4926531612       15.6891227837        4.9378878293
  H         0.4981178045       14.9105956021        4.1655373529
  C         0.4927490337        4.9379567955       15.6891142385
  H         0.4981882328        4.1656256227       14.9105658804
  C        11.3040762383        6.9499825986       15.6584219986
  H        11.3020926183        7.7047709818       14.8634837230
  C        11.3066134384       17.8395413484        4.9060430780
  H        11.3076187167       18.6393719297        4.1556629201
  C         0.5037783523        7.0374123050        4.9222979208
  H         0.5029432750        7.8122775997        4.1461032074
  C         0.4453920488       17.8505652133       15.7350512122
  H         0.4449728796       18.6260137990       14.9594229103
  C        11.3040051792       15.6584444979        6.9505080717
  H        11.3020430311       14.8635363893        7.7053406151
  C        11.3067398914        4.9057815363       17.8397385313
  H        11.3077877067        4.1554881414       18.6396491961
  C         0.4454112856       15.7350454013       17.8505729970
  H         0.4450090783       14.9594154454       18.6260205145
  C         0.5038354602        4.9222466496        7.0376457843
  H         0.5030215751        4.1461147320        7.8125742325
  C        11.3278035315        6.9260722199        6.9268822252
  H        11.3214277965        7.7012613483        7.7021374995
  C        11.2786097768       17.9088943630       17.9089242381
  H        11.2943564886       18.6843185451       18.6843080535
  C         0.4767347070        7.0430220192       17.8136816063
  H         0.4708749161        7.8143758212       18.5933939552
  C         0.4766285767       17.8136100713        7.0430439912
  H         0.4707520429       18.5932927712        7.8144256611
  C        15.5792552988       11.3737862709       15.7322629142
  H        14.7924466835       11.3741959756       14.9683282285
  C        15.7063712482        0.5129200136        4.8749627477
  H        14.9404472197        0.5119013390        4.0899071365
  C         4.8846528041       11.3717910868        4.9698558312
  H         4.1038593216       11.3897954949        4.1994777852
  C         4.8216525616        0.6067127236       15.7216745985
  H         4.0538291831        0.6009043836       14.9387121985
  C        15.6556845372       11.3273549746        6.9953286519
  H        14.8792591069       11.3241225399        7.7699574215
  C        15.6729524098        0.5641652833       17.8365714488
  H        14.9041474654        0.5722052798       18.6187834581
  C         4.7964283961       11.4154641844       17.8677813476
  H         4.0222084245       11.4073147564       18.6446875258
  C         4.8075729238        0.5513955408        7.0306984347
  H         4.0403064868        0.5573365218        7.8142782926
  C         6.9122966967       11.4351612275       15.7556217995
  H         7.6963977350       11.4424448248       14.9894059547
  C         6.9000340034        0.5344555431        4.8914558700
  H         7.6666415182        0.5279851919        4.1069364180
  C        17.7758480597       11.3390616325        4.8860988592
  H        18.5536607312       11.3428478810        4.1129998135
  C        17.7698493825        0.5455181498       15.7031508802
  H        18.5390600597        0.5376096280       14.9214971820
  C         7.0156031503       11.3358425413        7.0662384418
  H         7.8008079548       11.3103358595        7.8302855749
  C         6.9139408834        0.6162047137       17.8594616067
  H         7.6813087153        0.6220080461       18.6431762101
  C        17.7303594861       11.3743276416       17.8093665767
  H        18.5194125867       11.3744998647       18.5711888123
  C        17.7951222531        0.5163063494        7.0174145587
  H        18.5602074709        0.5174427481        7.8031941222
  C        15.5792557931       15.7321518505       11.3738735784
  H        14.7924602677       14.9682057832       11.3742798679
  C        15.7064641065        4.8748842864        0.5130586477
  H        14.9405543326        4.0898153086        0.5120235036
  C         4.8216312134       15.7217633502        0.6066715609
  H         4.0537829498       14.9388220722        0.6008744850
  C         4.8853371846        4.9703848645       11.3717237420
  H         4.1045489710        4.1999978718       11.3896437499
  C         6.9124156187       15.7556325353       11.4351724950
  H         7.6965026267       14.9893941369       11.4425151819
  C         6.9000525610        4.8913279888        0.5344209797
  H         7.6666868083        4.1068352198        0.5279450925
  C        17.7698366664       15.7030742683        0.5455656391
  H        18.5390483381       14.9214219298        0.5376534274
  C        17.7759240252        4.8859552605       11.3392271602
  H        18.5536996677        4.1128189973       11.3430364482
  C        15.6558796244        6.9952934015       11.3274762952
  H        14.8794854099        7.7699567796       11.3242132161
  C        15.6729453157       17.8364963659        0.5642247465
  H        14.9041415152       18.6187093004        0.5722682439
  C         4.8075071374        7.0305134952        0.5513461820
  H         4.0402149666        7.8140696190        0.5573016915
  C         4.7964857949       17.8677452272       11.4153774411
  H         4.0222467563       18.6446309155       11.4071707051
  C         7.0161731411        7.0668697615       11.3359075413
  H         7.8012035029        7.8310760577       11.3105200866
  C         6.9140115522       17.8594645312        0.6161956873
  H         7.6814101255       18.6431475816        0.6220007943
  C        17.7951670173        7.0173806566        0.5164782916
  H        18.5602328721        7.8031787052        0.5176197567
  C        17.7303203373       17.8092990412       11.3743954176
  H        18.5193610732       18.5711332842       11.3745639386
 Kr         7.4167753963       11.2996472951       11.3034303417
