     409
 i =     150, E =    -5183.7578338938
  N         2.9127670148        5.1979054691       16.0012889091
  C         1.5944535519        5.4676052772       16.2698199764
  N        13.7322283697        5.1693664346        5.1693669590
  C        12.4130453066        5.4356992266        5.4357004806
  N        19.5957066765       17.5558570228       16.0002621386
  C        20.9137803062       17.2886268851       16.2725701083
  N         8.7756865491       17.5941312648        5.1719553150
  C        10.0939878377       17.3228731246        5.4393734740
  N        19.5930428502        5.1961467337        6.7525466494
  C        20.9109342141        5.4699717378        6.4860595475
  N         8.7756730129        5.1719567674       17.5941310756
  C        10.0939741361        5.4393749304       17.3228735397
  N         2.9109273216       17.5535202484        6.7575964346
  C         1.5931967201       17.2837472450        6.4858502017
  N        13.7368161993       17.5774419994       17.5774407147
  C        12.4172968308       17.3120274071       17.3120266037
  N        15.8978342846        3.0297019522        5.1844246085
  C        16.1657965122        1.7128986330        5.4586226837
  N        15.8646774577       13.8529702527       16.0060766780
  C        16.1349594852       12.5346831408       16.2736682034
  N        15.8962304440       19.7171748303       17.5659118382
  C        16.1650409864       21.0340322459       17.2934288590
  N        15.8662368019        8.8936165450        6.7372731001
  C        16.1362845329       10.2122062844        6.4693614388
  N         6.6000915174       19.7236327510        5.1927364567
  C         6.3299575230       21.0399949180        5.4660665595
  N         6.6442747430        8.9011514996       16.0065258785
  C         6.3724197697       10.2194286041       16.2723540194
  N         6.6066347970        3.0375298240       17.5742993140
  C         6.3386935902        1.7205409220       17.3005814061
  N         6.6441875079       13.8581750481        6.7529780218
  C         6.3702974459       12.5402874552        6.4888672924
  N         5.0653971281       16.0041477116        3.0388919638
  C         5.3321585218       16.2752326276        1.7207368052
  N         5.0784922322        5.2068934016       13.8572169096
  C         5.3475071370        5.4796691941       12.5400773303
  N        17.4421206759       16.0009661513       19.7149371604
  C        17.1748555375       16.2713802032       21.0333703503
  N        17.4295294903        5.1894488609        8.8959856680
  C        17.1573074220        5.4584314207       10.2129715074
  N         5.0570010867        6.7610358141       19.7193513682
  C         5.3225181240        6.4906074085       21.0383924411
  N         5.0766737031       17.5499957954        8.9037257354
  C         5.3484550978       17.2803345725       10.2207417634
  N        17.4446256756        6.7489010194        3.0321278661
  C        17.1758250642        6.4805202777        1.7138281025
  N        17.4299900483       17.5524549767       13.8509022295
  C        17.1569751143       17.2836812805       12.5337819637
  N         5.0554299806        3.0388051489        6.7594380068
  C         5.3220135904        1.7201658898        6.4894570785
  N         5.0785057773       13.8578645866       17.5517317907
  C         5.3490266099       12.5405818663       17.2813909288
  N        17.4436680923       19.7140099645        6.7529303051
  C        17.1759530106       21.0325757305        6.4829897279
  N        17.4285617211        8.8968400176       17.5498677121
  C        17.1557389426       10.2138299846       17.2818761286
  N         5.0666883571       19.7209496730       16.0035197006
  C         5.3325486587       21.0395762464       16.2745705027
  N         5.0769859055        8.9033540664        5.2075590144
  C         5.3471070048       10.2201859120        5.4801252226
  N        17.4425668517        3.0324656076       16.0036213804
  C        17.1745200257        1.7143510015       16.2731714958
  N        17.4311684464       13.8502126145        5.1880826380
  C        17.1586366107       12.5330579727        5.4573064386
  N         2.9135141433       16.0057221009       17.5614043515
  C         1.5954456786       16.2753453054       17.2914095313
  N        13.7268234000       16.0200566196        6.7245804869
  C        12.4112894461       16.2968171572        6.4539324593
  N        19.5950662633       15.9992984574        5.1930162411
  C        20.9127525233       16.2687903757        5.4650921306
  N         8.7766923401       16.0328277899       16.0328311065
  C        10.0936807163       16.3022270322       16.3022276983
  N        19.5932310478        6.7521979383       17.5520665153
  C        20.9115024246        6.4831170140       17.2828949872
  N         8.7751781362        6.7192246149        6.7192265073
  C        10.0918435121        6.4487080760        6.4487091743
  N         2.9107219833        6.7608637076        5.2044749450
  C         1.5927451549        6.4902004874        5.4740662632
  N        13.7268110464        6.7245813164       16.0200590115
  C        12.4112769791        6.4539335434       16.2968193608
  N        15.8979048985        5.1878717336       19.7167648580
  C        16.1662747259        5.4608178136       21.0334611912
  N        15.8642702133       16.0030707486        8.8944514600
  C        16.1340439374       16.2716361218       10.2130392435
  N        15.8959646396       17.5684304204        3.0308398243
  C        16.1644948978       17.2950983465        1.7138435542
  N        15.8671777628        6.7356606974       13.8520235091
  C        16.1373925154        6.4680947035       12.5337338982
  N         6.5975541494        5.1899793215        3.0358307183
  C         6.3290010066        5.4645025040        1.7192996490
  N         6.6453873700       16.0070292698       13.8585445861
  C         6.3725487339       16.2729734655       12.5408145309
  N         6.6089660112       17.5724353352       19.7239494393
  C         6.3395643899       17.2995019679       21.0407406281
  N         6.6436118029        6.7521705807        8.9002085391
  C         6.3704163246        6.4888026666       10.2186795268
  N        19.5932199071       17.5520660672        6.7521984383
  C        20.9114913391       17.2828926384        6.4831204299
  N         8.7776621185       17.5884584643       17.5884585332
  C        10.0957341248       17.3181713294       17.3181713246
  N         2.9107215606        5.2044719879        6.7608642133
  C         1.5927446166        5.4740635538        6.4902012278
  N        13.7346575136        5.1727469825       17.5791664857
  C        12.4153444336        5.4402871070       17.3148546169
  N         2.9135149038       17.5613990884       16.0057253536
  C         1.5954463114       17.2914050203       16.2753485783
  N        13.7346709115       17.5791644756        5.1727474998
  C        12.4153576926       17.3148532457        5.4402861834
  N        19.5950774758        5.1930167048       15.9992968649
  C        20.9127635224        5.4650895320       16.2687920616
  N         8.7731425904        5.1645303767        5.1645321296
  C        10.0917409261        5.4328675006        5.4328697653
  N         6.6089646655       19.7239564667       17.5724370798
  C         6.3395638625       21.0407465567       17.2995008359
  N         6.6436192851        8.9001998208        6.7521642003
  C         6.3704042045       10.2186728799        6.4888176677
  N         6.5975524939        3.0358399720        5.1899799813
  C         6.3289991715        1.7193081670        5.4645017096
  N         6.6453792710       13.8585341181       16.0070276328
  C         6.3725545705       12.5408052898       16.2729864681
  N        15.8959631436        3.0308375776       17.5684274862
  C        16.1644927134        1.7138405488       17.2950954155
  N        15.8671783916       13.8520267028        6.7356599178
  C        16.1373918280       12.5337377920        6.4680931584
  N        15.8979047348       19.7167604701        5.1878753973
  C        16.1662746423       21.0334561277        5.4608209597
  N        15.8642707039        8.8944545671       16.0030716170
  C        16.1340424330       10.2130432725       16.2716380506
  N        17.4436656619        6.7529306206       19.7140135568
  C        17.1759511105        6.4829897449       21.0325802334
  N        17.4285612754       17.5498653381        8.8968354872
  C        17.1557408609       17.2818726723       10.2138248518
  N         5.0554298002        6.7594348600        3.0387966833
  C         5.3220155369        6.4894565055        1.7201580483
  N         5.0785118759       17.5517319424       13.8578754190
  C         5.3490183491       17.2813775016       12.5405914821
  N        17.4425673386       16.0036247218        3.0324687101
  C        17.1745217662       16.2731750537        1.7143547119
  N        17.4311690605        5.1880831378       13.8502092391
  C        17.1586377008        5.4573074451       12.5330538636
  N         5.0666903061       16.0035166505       19.7209439971
  C         5.3325482088       16.2745704360       21.0395712674
  N         5.0769786324        5.2075658749        8.9033629186
  C         5.3471209143        5.4801121593       10.2201927310
  N        17.4421190868       19.7149315067       16.0009652568
  C        17.1748536480       21.0333653783       16.2713778014
  N        17.4295292567        8.8959920015        5.1894475946
  C        17.1573061761       10.2129771651        5.4584298587
  N         5.0653957061        3.0388958917       16.0041465984
  C         5.3321590427        1.7207417094       16.2752303562
  N         5.0785044925       13.8572126779        5.2068790676
  C         5.3474943447       12.5400714527        5.4796806018
  N        17.4446259952        3.0321220670        6.7489003949
  C        17.1758255417        1.7138224086        6.4805204006
  N        17.4299856147       13.8509094358       17.5524558215
  C        17.1569705740       12.5337885406       17.2836840203
  N         5.0570016111       19.7193571156        6.7610352403
  C         5.3225168017       21.0383992427        6.4906059900
  N         5.0766628182        8.9037192847       17.5499866763
  C         5.3484620266       10.2207341638       17.2803447488
  N        19.5930435571        6.7525490384        5.1961475731
  C        20.9109347143        6.4860604586        5.4699727459
  N         8.7761201441        6.7233927507       16.0353337471
  C        10.0929710156        6.4530694353       16.3048018275
  N         2.9109366511        6.7575977496       17.5535171968
  C         1.5932065730        6.4858481288       17.2837485652
  N        13.7259724056        6.7244229311        6.7244205777
  C        12.4100880446        6.4515244402        6.4515237010
  N         2.9127574994       16.0012898054        5.1979041538
  C         1.5944434976       16.2698185098        5.4676080249
  N        13.7272377883       16.0215088024       16.0215048806
  C        12.4120834621       16.2961564686       16.2961543981
  N        19.5957059857       16.0002607701       17.5558583061
  C        20.9137798097       16.2725682000       17.2886288254
  N         8.7761331044       16.0353322783        6.7233911472
  C        10.0929845400       16.3048008704        6.4530676425
  N         6.6066388109       17.5742988423        3.0375251851
  C         6.3386945193       17.3005830539        1.7205357630
  N         6.6441763857        6.7529890765       13.8581793160
  C         6.3703109182        6.4888542626       12.5402930784
  N         6.6000888237        5.1927360473       19.7236260282
  C         6.3299576905        5.4660676482       21.0399876742
  N         6.6442868835       16.0065335918        8.9011572330
  C         6.3724137311       16.2723437875       10.2194356900
  N        15.8962324760       17.5659126672       19.7171794660
  C        16.1650436060       17.2934309574       21.0340365472
  N        15.8662377065        6.7372756459        8.8936107507
  C        16.1362857966        6.4693639904       10.2122009308
  N        15.8978363647        5.1844223850        3.0297087750
  C        16.1657977132        5.4586202638        1.7129048908
  N        15.8646801928       16.0060778306       13.8529646937
  C        16.1349631215       16.2736670981       12.5346777449
 Zn        14.5677527798       14.7211612141       14.7211562594
 Cl        13.3304044011       13.4917629288       13.4917494124
 Zn        14.6084802644        3.8857470735        3.8857508676
 Cl        13.3888829047        2.6464678309        2.6464713216
 Zn         3.7829658895       14.7114045826        3.9076539922
 Cl         2.5562762267       13.4615126918        2.6869783478
 Zn         3.7829668148        3.9076567350       14.7114048629
 Cl         2.5562826091        2.6869818652       13.4615116301
 Zn         7.9450658440        8.0222470345       14.7330919027
 Cl         9.2700180073        9.2207428862       13.5629030847
 Zn         7.8942921138       18.8795008716        3.8911994406
 Cl         9.0953836918       20.1286588749        2.6450829011
 Zn        18.7277314773        8.0439005165        3.9002746459
 Cl        19.9622313284        9.2808558930        2.6742389052
 Zn        18.7259503956       18.8419500287       14.7092540228
 Cl        19.9586297018       20.0700038734       13.4711266549
 Zn         7.9450709891       14.7330876147        8.0222454414
 Cl         9.2700141310       13.5628919001        9.2207508226
 Zn         7.8942857148        3.8912005805       18.8794986676
 Cl         9.0953713500        2.6450840557       20.1286581048
 Zn        18.7259491450       14.7092556110       18.8419531403
 Cl        19.9586154213       13.4711168137       20.0700083944
 Zn        18.7277313460        3.9002721741        8.0438954719
 Cl        19.9622324501        2.6742450198        9.2808585389
 Zn        14.5710468200        8.0196832921        8.0196787375
 Cl        13.3344448190        9.2503436532        9.2503290741
 Zn        14.6077016001       18.8671402319       18.8671443895
 Cl        13.3849254844       20.1041752634       20.1041764645
 Zn         3.7773706395        8.0543101834       18.8394853832
 Cl         2.5452273109        9.2968641636       20.0631012755
 Zn         3.7773687484       18.8394891110        8.0543125778
 Cl         2.5452150507       20.0631036639        9.2968625754
 Zn        14.5697550793       14.7186282875        8.0182876748
 Cl        13.3331942871       13.4888036054        9.2490195954
 Zn        14.6078711392        3.8890909266       18.8694463498
 Cl        13.3856074040        2.6507825237       20.1063079757
 Zn         3.7828970942       14.7127086104       18.8461039835
 Cl         2.5550292082       13.4687079630       20.0725367186
 Zn         3.7778403841        3.9126744692        8.0550157307
 Cl         2.5465176440        2.6953751784        9.3035747948
 Zn         7.9456297765        8.0186432407        8.0186498040
 Cl         9.2769710105        9.2000714458        9.2000767605
 Zn         7.8992384203       18.8751986938       18.8751944959
 Cl         9.1068696310       20.1196055274       20.1196012457
 Zn        18.7258381965        8.0475425286       18.8387902258
 Cl        19.9591275071        9.2841397732       20.0671398176
 Zn        18.7258332643       18.8387884997        8.0475420775
 Cl        19.9591234455       20.0671378405        9.2841355307
 Zn        14.5697484815        8.0182881167       14.7186296222
 Cl        13.3331800478        9.2490142642       13.4888040492
 Zn        14.6078760072       18.8694455249        3.8890929011
 Cl        13.3856087871       20.1063092330        2.6507932398
 Zn         3.7778412472        8.0550090830        3.9126687450
 Cl         2.5465168100        9.3035649623        2.6953682341
 Zn         3.7828980837       18.8461046638       14.7127151122
 Cl         2.5550211590       20.0725339003       13.4687200912
 Zn         7.9447837301       14.7304340384       14.7304451660
 Cl         9.2637910424       13.5433001086       13.5433057432
 Zn         7.8881285775        3.8851759793        3.8851720008
 Cl         9.0814417148        2.6336711265        2.6336763152
 Zn        18.7277253932       14.7109463867        3.8987607519
 Cl        19.9616833661       13.4734038780        2.6721981256
 Zn        18.7277315165        3.8987608656       14.7109446801
 Cl        19.9616878552        2.6721998695       13.4733959395
 Zn         5.8449216812        5.9649326742       16.7885545602
 Zn        16.6607072917       16.7799822705       16.7799813447
 Zn        16.6626174521        5.9593916769        5.9593910773
 Zn         5.8449269949       16.7885555858        5.9649310145
 Zn         5.8421364001        5.9635715930        5.9635699382
 Zn        16.6616342739       16.7795522915        5.9600259906
 Zn         5.8477545448       16.7885378616       16.7885419448
 Zn        16.6616339869        5.9600250028       16.7795520692
  N         3.6582897487        5.9783620328       16.7776515938
  N        14.4758908718        5.9486947077        5.9486933428
  N        18.8492129889       16.7765997288       16.7766006391
  N         8.0292788852       16.8145291271        5.9490038586
  N        18.8468207106        5.9722842787        5.9722832116
  N         8.0292647600        5.9490045457       16.8145281046
  N         3.6582801361       16.7776530444        5.9783614457
  N        14.4785456924       16.7969778352       16.7969746748
  N        16.6714437609        3.7773685627        5.9650315778
  N        16.6482722440       14.5982822929       16.7794875109
  N        16.6686109203       18.9693200495       16.7841832311
  N        16.6487990448        8.1481751097        5.9628718728
  N         5.8299898285       18.9750273703        5.9757389835
  N         5.8600836550        8.1556503301       16.7797918415
  N         5.8363076288        3.7845904041       16.7900233011
  N         5.8625474949       14.6043101326        5.9771767671
  N         5.8363091277       16.7900257324        3.7845854188
  N         5.8625357835        5.9771892441       14.6043137721
  N        16.6686123361       16.7841832011       18.9693250767
  N        16.6487992473        5.9628735432        8.1481690701
  N         5.8299878642        5.9757395584       18.9750204918
  N         5.8600981280       16.7798036646        8.1556564556
  N        16.6714449511        5.9650310400        3.7773746461
  N        16.6482752825       16.7794888250       14.5982759554
  N         5.8270596460        3.7836435513        5.9732462080
  N         5.8623457745       14.6048098987       16.7809002024
  N        16.6703641685       18.9686521662        5.9692318806
  N        16.6477047825        8.1490032558       16.7765567024
  N         5.8388683812       18.9759241529       16.7887508836
  N         5.8608532083        8.1549558480        5.9768256950
  N        16.6691606608        3.7780855513       16.7868846682
  N        16.6498539506       14.5974854022        5.9614590837
  N         3.6600691270       16.7833887848       16.7833931481
  N        14.4773956881       16.7962322237        5.9495198248
  N        18.8477829309       16.7756034447        5.9718614991
  N         8.0307279499       16.8102348361       16.8102377992
  N        18.8477947361        5.9718628568       16.7756014369
  N         8.0273914483        5.9430609494        5.9430648263
  N         3.6570029158        5.9828571194        5.9828588305
  N        14.4773824933        5.9495195226       16.7962342858
  N        16.6703629925        5.9692299432       18.9686564987
  N        16.6477031576       16.7765556187        8.1489990504
  N        16.6691610572       16.7868875296        3.7780887455
  N        16.6498534804        5.9614591863       14.5974815898
  N         5.8270585572        5.9732422357        3.7836346506
  N         5.8623597073       16.7809079618       14.6048205395
  N         5.8388710948       16.7887467431       18.9759179744
  N         5.8608384412        5.9768399779        8.1549644593
  C        11.2502818702       15.7486619849       15.7486604871
  H        11.2437504367       14.9730446979       14.9730411346
  C        11.2536558304        4.8835565671        4.8835593998
  H        11.2566411731        4.1081030453        4.1081071238
  C         0.4344120518       15.7198618395        4.9154381907
  H         0.4354555517       14.9449382992        4.1393182034
  C         0.4344234849        4.9154347879       15.7198630135
  H         0.4354659030        4.1393170250       14.9449369980
  C        11.2502873783        7.0032724490       15.7493926274
  H        11.2448167215        7.7780073284       14.9728474054
  C        11.2567080992       17.8707798723        4.8904310400
  H        11.2609290002       18.6477079405        4.1164304122
  C         0.4318091093        7.0388680915        4.9224911336
  H         0.4314892395        7.8150133660        4.1475579121
  C         0.4346039560       17.8404254832       15.7238934845
  H         0.4344004566       18.6153366244       14.9477130860
  C        11.2503001838       15.7493909440        7.0032699835
  H        11.2448265825       14.9728451507        7.7780044146
  C        11.2566935606        4.8904322986       17.8707813338
  H        11.2609175368        4.1164325950       18.6477097995
  C         0.4346024219       15.7238911643       17.8404290837
  H         0.4343963090       14.9477109160       18.6153403920
  C         0.4318079529        4.9224880436        7.0388671138
  H         0.4314855675        4.1475535436        7.8150113249
  C        11.2498865913        7.0007489439        7.0007476330
  H        11.2454771831        7.7764100715        7.7764061502
  C        11.2593361570       17.8656759454       17.8656757659
  H        11.2648061164       18.6411531827       18.6411527597
  C         0.4315080086        7.0358867979       17.8323705547
  H         0.4299392020        7.8131950662       18.6061821402
  C         0.4314967256       17.8323679335        7.0358896462
  H         0.4299303355       18.6061813390        7.8131961912
  C        15.5809236798       11.3744624259       15.7255728228
  H        14.8013649932       11.3757082334       14.9541522905
  C        15.6183776369        0.5525957682        4.9061965278
  H        14.8473506118        0.5516058933        4.1260096421
  C         4.7923618689       11.3801603065        4.9340603779
  H         4.0119784684       11.3803439974        4.1631886414
  C         4.7868486907        0.5601933858       15.7194487805
  H         4.0182162025        0.5603272276       14.9371221505
  C        15.5836534083       11.3734474426        7.0163711432
  H        14.8044761441       11.3744745302        7.7882584268
  C        15.6172580676        0.5534592326       17.8477827417
  H        14.8459677832        0.5526223668       18.6276465749
  C         4.7939486111       11.3805935662       17.8271669144
  H         4.0133656033       11.3806206440       18.5979103719
  C         4.7766073389        0.5593973398        7.0452905200
  H         4.0077310204        0.5596299018        7.8273545037
  C         6.9271988346       11.3801773964       15.7268309720
  H         7.7117096514       11.3802183834       14.9608472883
  C         6.8749991711        0.5595366551        4.9098508980
  H         7.6430567034        0.5594854306        4.1266888977
  C        17.7111089784       11.3724872994        4.9101170817
  H        18.4904955033       11.3714787469        4.1383473073
  C        17.7217467959        0.5542867010       15.7182953896
  H        18.4927261669        0.5551955406       14.9382363759
  C         6.9241532130       11.3794413306        7.0357036350
  H         7.7078988071       11.3793128068        7.8024859926
  C         6.8845190188        0.5606256130       17.8556365775
  H         7.6526346740        0.5607480542       18.6387257785
  C        17.7098320633       11.3731486019       17.8303321743
  H        18.4897345264       11.3719373060       18.6016665287
  C        17.7226468699        0.5537320377        7.0359406856
  H        18.4934633881        0.5548004035        7.8161016617
  C        15.5809246774       15.7255709865       11.3744579306
  H        14.8013644261       14.9541526131       11.3757048350
  C        15.6183803702        4.9061933109        0.5526022636
  H        14.8473544368        4.1260046543        0.5516132032
  C         4.7868487795       15.7194517389        0.5601888657
  H         4.0182159443       14.9371243393        0.5603253150
  C         4.7923735854        4.9340451503       11.3801664878
  H         4.0119764431        4.1631900779       11.3803513311
  C         6.9271908987       15.7268209088       11.3801850893
  H         7.7117144947       14.9608491837       11.3802241342
  C         6.8750015070        4.9098506410        0.5595280451
  H         7.6430574368        4.1266878365        0.5594790185
  C        17.7217498578       15.7182977607        0.5542915760
  H        18.4927290377       14.9382393008        0.5551993552
  C        17.7111093700        4.9101191598       11.3724818853
  H        18.4904961787        4.1383489332       11.3714736034
  C        15.5836558189        7.0163726442       11.3734425232
  H        14.8044785730        7.7882604740       11.3744716405
  C        15.6172598709       17.8477863897        0.5534631568
  H        14.8459701930       18.6276501130        0.5526257169
  C         4.7766083372        7.0452923886        0.5593904197
  H         4.0077317844        7.8273552652        0.5596260378
  C         4.7939412914       17.8271517078       11.3806030501
  H         4.0133678426       18.5979063916       11.3806317274
  C         6.9241695752        7.0356904743       11.3794464226
  H         7.7078997068        7.8024859857       11.3793147830
  C         6.8845183324       17.8556365033        0.5606196141
  H         7.6526358000       18.6387251452        0.5607462872
  C        17.7226432349        7.0359412570        0.5537370217
  H        18.4934579355        7.8161046009        0.5548053135
  C        17.7098370484       17.8303289451       11.3731417301
  H        18.4897394492       18.6016627115       11.3719297968
 Xe         6.8850068669       11.3611501229       11.3611535372
