     409
 i =     150, E =    -5183.7475508277
  N         2.8176145294        5.1972315324       15.9961029924
  C         1.5001887345        5.4678381125       16.2658523224
  N        13.6247368086        5.1202248039        5.1202274995
  C        12.3069935660        5.3936398202        5.3936413293
  N        19.5144287985       17.5542658092       15.9995132155
  C        20.8320830062       17.2864550698       16.2705841576
  N         8.6696394655       17.5951661305        5.1599811285
  C         9.9916791921       17.3354777237        5.4181856107
  N        19.4916969060        5.2032456971        6.7595805497
  C        20.8096514120        5.4734507352        6.4895752758
  N         8.6696321883        5.1599913163       17.5951623178
  C         9.9916697141        5.4181907585       17.3354781290
  N         2.8185515379       17.5480038580        6.7567592971
  C         1.5009022786       17.2799594550        6.4856617826
  N        13.6407065697       17.6198235080       17.6198197181
  C        12.3231756939       17.3470195700       17.3470174543
  N        15.8221348064        3.0271312461        5.1755606043
  C        16.0910187383        1.7122637782        5.4532588027
  N        15.7734537895       13.8578674027       16.0095420822
  C        16.0453535486       12.5389395430       16.2753779780
  N        15.8344895561       19.7199262725       17.5707171233
  C        16.1000170400       21.0355003423       17.2931793716
  N        15.7504799997        8.8941675579        6.7429530878
  C        16.0241929646       10.2137270912        6.4820804245
  N         6.4982088128       19.7200955132        5.1903772649
  C         6.2289753882       21.0358736455        5.4647713837
  N         6.5561801952        8.8939916979       16.0094913621
  C         6.2886263026       10.2137003573       16.2773890639
  N         6.5028498128        3.0327197646       17.5750571764
  C         6.2373647839        1.7161119258       17.2996512698
  N         6.5499529979       13.8548544686        6.7320278176
  C         6.2778223150       12.5357289097        6.4675095195
  N         4.9633790624       16.0037086809        3.0338495009
  C         5.2316306231       16.2736626421        1.7159081813
  N         4.9797673762        5.1903031930       13.8517305473
  C         5.2526957111        5.4605767738       12.5349870111
  N        17.3703333589       15.9952640286       19.7164689178
  C        17.1027915935       16.2641574749       21.0349744650
  N        17.3219762540        5.2026674901        8.8999153558
  C        17.0508568592        5.4768281193       10.2165972673
  N         4.9583003765        6.7609136410       19.7148658367
  C         5.2231133761        6.4906247327       21.0338753319
  N         4.9856197669       17.5502875413        8.8996746767
  C         5.2632974960       17.2840503444       10.2159346653
  N        17.3540476208        6.7544573519        3.0344768413
  C        17.0917374597        6.4840780462        1.7154467771
  N        17.3481039433       17.5469840994       13.8556962373
  C        17.0741742159       17.2786717225       12.5384444629
  N         4.9519770835        3.0336340179        6.7551402452
  C         5.2203206757        1.7150722583        6.4874116439
  N         4.9919749928       13.8526201705       17.5562723984
  C         5.2658257263       12.5358533907       17.2872886396
  N        17.3635568513       19.7170059741        6.7537292820
  C        17.0962058314       21.0352081051        6.4835884183
  N        17.3434205715        8.9005510662       17.5559495295
  C        17.0720489252       10.2173068530       17.2832444409
  N         4.9713978107       19.7165293106       15.9997126014
  C         5.2352617764       21.0352731792       16.2713331342
  N         4.9760704248        8.8985494780        5.1942005130
  C         5.2514046445       10.2148884963        5.4628634582
  N        17.3604827055        3.0347628655       15.9932823324
  C        17.0981551784        1.7154763809       16.2630444763
  N        17.3267576970       13.8559776299        5.2129595390
  C        17.0532803868       12.5384365855        5.4819834308
  N         2.8292155224       15.9984663835       17.5534113735
  C         1.5117880368       16.2700896628       17.2859364020
  N        13.6417811966       16.0677204512        6.6822336698
  C        12.3227145719       16.3334084777        6.4165154074
  N        19.5012857030       15.9966231873        5.2003020266
  C        20.8195559132       16.2660472887        5.4686918953
  N         8.6980222023       16.0359307286       16.0359376936
  C        10.0112507279       16.3170005590       16.3170038546
  N        19.5033425104        6.7555328225       17.5521291320
  C        20.8206277867        6.4849471413       17.2817016643
  N         8.6829839736        6.7080581724        6.7080540412
  C         9.9957844464        6.4259821087        6.4259791305
  N         2.8091535879        6.7575623406        5.2010757609
  C         1.4913345301        6.4886587247        5.4725712558
  N        13.6417884068        6.6822186240       16.0677297098
  C        12.3227066154        6.4165097848       16.3334118675
  N        15.8296758226        5.1751539015       19.7200610431
  C        16.0948438355        5.4530298184       21.0355973488
  N        15.7695760695       16.0185656807        8.8956956816
  C        16.0434434617       16.2800042491       10.2150255956
  N        15.8265338791       17.5693020127        3.0272468348
  C        16.0960004602       17.2924190741        1.7122892030
  N        15.7551275031        6.7544414723       13.8578638754
  C        16.0267213549        6.4876439932       12.5388700720
  N         6.4913288511        5.1835931148        3.0299742379
  C         6.2258654417        5.4612552614        1.7140192908
  N         6.5615058365       16.0139566976       13.8554872610
  C         6.2906824706       16.2800908991       12.5364564350
  N         6.5112676764       17.5701756319       19.7213214352
  C         6.2412324197       17.2970601567       21.0374127475
  N         6.5468528612        6.7348574958        8.8931406527
  C         6.2768531111        6.4694406703       10.2128638028
  N        19.5033446570       17.5521292915        6.7555410802
  C        20.8206275386       17.2817024611        6.4849502636
  N         8.6778489561       17.5923902851       17.5923976664
  C         9.9996135862       17.3325311013       17.3325348653
  N         2.8091571058        5.2010837984        6.7575552662
  C         1.4913347326        5.4725754145        6.4886549159
  N        13.6331890463        5.1301685561       17.6250305287
  C        12.3155563533        5.4025878249       17.3511806532
  N         2.8292206829       17.5534019057       15.9984801512
  C         1.5117890037       17.2859311078       16.2700969271
  N        13.6331954527       17.6250218302        5.1301805909
  C        12.3155634372       17.3511774931        5.4025922052
  N        19.5012878313        5.2002943376       15.9966213479
  C        20.8195550115        5.4686891712       16.2660457503
  N         8.6607475641        5.1527823446        5.1527802339
  C         9.9829718283        5.4108000532        5.4107987766
  N         6.5112754182       19.7213300163       17.5701934951
  C         6.2412345502       21.0374129730       17.2970672844
  N         6.5468493468        8.8931367561        6.7348536575
  C         6.2768513032       10.2128612263        6.4694405538
  N         6.4913194525        3.0299811484        5.1835958164
  C         6.2258637857        1.7140189802        5.4612518683
  N         6.5615127378       13.8554796976       16.0139585156
  C         6.2906827642       12.5364545625       16.2800956547
  N        15.8265298686        3.0272414044       17.5693062457
  C        16.0959986779        1.7122849884       17.2924193699
  N        15.7551278719       13.8578697532        6.7544383493
  C        16.0267221041       12.5388740713        6.4876482001
  N        15.8296702259       19.7200608131        5.1751633207
  C        16.0948421829       21.0355938332        5.4530387097
  N        15.7695819987        8.8956951081       16.0185669033
  C        16.0434455604       10.2150284394       16.2800052381
  N        17.3635604054        6.7537233100       19.7170097301
  C        17.0962057575        6.4835811082       21.0352097800
  N        17.3434134346       17.5559481393        8.9005466378
  C        17.0720466930       17.2832435581       10.2173027491
  N         4.9519854965        6.7551357750        3.0336400444
  C         5.2203218492        6.4874140168        1.7150714381
  N         4.9919686333       17.5562720610       13.8526186107
  C         5.2658253938       17.2872840773       12.5358573682
  N        17.3604886036       15.9932792364        3.0347623376
  C        17.0981577161       16.2630448986        1.7154780651
  N        17.3267562630        5.2129635950       13.8559773574
  C        17.0532794914        5.4819792169       12.5384307111
  N         4.9713899246       15.9996951352       19.7165361610
  C         5.2352597286       16.2713260641       21.0352730878
  N         4.9760720190        5.1942070331        8.8985479216
  C         5.2514048121        5.4628651332       10.2148911389
  N        17.3703287254       19.7164679676       15.9952615266
  C        17.1027901723       21.0349744364       16.2641533681
  N        17.3219796902        8.8999240816        5.2026566551
  C        17.0508595333       10.2166019890        5.4768291134
  N         4.9633622028        3.0338476392       16.0037044851
  C         5.2316229600        1.7159088148       16.2736618052
  N         4.9797823694       13.8517331498        5.1903028511
  C         5.2527017337       12.5349840570        5.4605757014
  N        17.3540454444        3.0344771680        6.7544597077
  C        17.0917378373        1.7154442241        6.4840816686
  N        17.3481036631       13.8557032104       17.5469792284
  C        17.0741718309       12.5384517010       17.2786705439
  N         4.9583015169       19.7148675857        6.7609135815
  C         5.2231168685       21.0338727287        6.4906209679
  N         4.9856193853        8.8996724866       17.5502846140
  C         5.2632944622       10.2159351837       17.2840519730
  N        19.4916879426        6.7595702028        5.2032592333
  C        20.8096524266        6.4895735940        5.4734538359
  N         8.6905099218        6.7106931810       16.0345806413
  C        10.0036945514        6.4305611490       16.3171973535
  N         2.8185403180        6.7567758120       17.5480162108
  C         1.5009025545        6.4856683608       17.2799624628
  N        13.6336098951        6.6748222345        6.6748223612
  C        12.3144429741        6.4094879864        6.4094875777
  N         2.8176083764       15.9960908685        5.1972150072
  C         1.5001916023       16.2658495084        5.4678314866
  N        13.6491812224       16.0657085359       16.0657030084
  C        12.3301244000       16.3312362592       16.3312332340
  N        19.5144189346       15.9995286791       17.5542528096
  C        20.8320828730       16.2705885522       17.2864516914
  N         8.6905071478       16.0345855529        6.7106807256
  C        10.0037036706       16.3171971191        6.4305553481
  N         6.5028659350       17.5750644704        3.0327092731
  C         6.2373717387       17.2996535788        1.7161099135
  N         6.5499399193        6.7320259370       13.8548606454
  C         6.2778177202        6.4675088435       12.5357309896
  N         6.4982064784        5.1903770047       19.7200985334
  C         6.2289718524        5.4647748292       21.0358727496
  N         6.5561841244       16.0094981484        8.8939873847
  C         6.2886310785       16.2773897947       10.2137017743
  N        15.8344944996       17.5707170423       19.7199231490
  C        16.1000182374       17.2931824917       21.0355040156
  N        15.7504758793        6.7429648078        8.8941707395
  C        16.0241902119        6.4820795325       10.2137210791
  N        15.8221368404        5.1755571096        3.0271341571
  C        16.0910186454        5.4532543724        1.7122671510
  N        15.7734529620       16.0095477401       13.8578626587
  C        16.0453553176       16.2753794532       12.5389343148
 Zn        14.4689193269       14.7648479345       14.7648448828
 Cl        12.9886613814       13.6767338644       13.6767367616
 Zn        14.5375223690        3.8486564926        3.8486594553
 Cl        13.3752597023        2.5836977648        2.5836972421
 Zn         3.6801692457       14.7091723325        3.9003298032
 Cl         2.4437248368       13.4732469749        2.6750655147
 Zn         3.6801612630        3.9003334933       14.7091729393
 Cl         2.4437058007        2.6750726681       13.4732556012
 Zn         7.8489024990        8.0097162537       14.7282482830
 Cl         9.0779517809        9.2414376432       13.4918396654
 Zn         7.7875455781       18.8804389979        3.8856217747
 Cl         8.9982556852       20.1277911995        2.6456864945
 Zn        18.6266755996        8.0525080694        3.9089499002
 Cl        19.8564378379        9.3002244739        2.6895245444
 Zn        18.6543393248       18.8384663519       14.7067020290
 Cl        19.8793793441       20.0617707894       13.4574247732
 Zn         7.8489080402       14.7282496942        8.0097135884
 Cl         9.0779574635       13.4918469826        9.2414412071
 Zn         7.7875393522        3.8856256552       18.8804359859
 Cl         8.9982550725        2.6456846662       20.1277786453
 Zn        18.6543396704       14.7067060325       18.8384657183
 Cl        19.8793899657       13.4574258327       20.0617603317
 Zn        18.6266756319        3.9089487114        8.0525085621
 Cl        19.8564220852        2.6895259766        9.3002425711
 Zn        14.4447531711        7.9792387443        7.9792372754
 Cl        12.9449586946        9.0543050102        9.0542929399
 Zn        14.5475145551       18.8893911733       18.8893918019
 Cl        13.3821637014       20.1537033827       20.1537094707
 Zn         3.6795564473        8.0547071228       18.8351414663
 Cl         2.4408797506        9.2946418575       20.0544857119
 Zn         3.6795585026       18.8351387489        8.0547030116
 Cl         2.4408683127       20.0544760990        9.2946328623
 Zn        14.4560491279       14.7754450530        7.9992128355
 Cl        12.9662857165       13.7638336873        9.1458731435
 Zn        14.5424015298        3.8521925050       18.8899651379
 Cl        13.3758333575        2.5896569817       20.1541222515
 Zn         3.6883158781       14.7074186586       18.8422174284
 Cl         2.4523906328       13.4707007650       20.0677910223
 Zn         3.6732867365        3.9055967398        8.0511327904
 Cl         2.4345783796        2.6870635965        9.2913367542
 Zn         7.8447937402        8.0101781299        8.0101775655
 Cl         9.0745653870        9.2441381391        9.2441360146
 Zn         7.7958854594       18.8762601671       18.8762650804
 Cl         9.0124593610       20.1168765428       20.1168845886
 Zn        18.6486020581        8.0497661672       18.8436197180
 Cl        19.8774019913        9.2874087901       20.0739477148
 Zn        18.6486001676       18.8436175006        8.0497696224
 Cl        19.8774010653       20.0739475451        9.2874085209
 Zn        14.4560469696        7.9992108704       14.7754463107
 Cl        12.9662684400        9.1458734989       13.7638552443
 Zn        14.5424040782       18.8899631321        3.8521989352
 Cl        13.3758362267       20.1541144983        2.5896565255
 Zn         3.6732875028        8.0511338728        3.9055937428
 Cl         2.4345837790        9.2913335123        2.6870533592
 Zn         3.6883158239       18.8422179181       14.7074252096
 Cl         2.4523853278       20.0677944219       13.4707116632
 Zn         7.8551188262       14.7312097555       14.7312152704
 Cl         9.0844692474       13.4976595515       13.4976546837
 Zn         7.7777399613        3.8753158027        3.8753125208
 Cl         8.9845914566        2.6299435640        2.6299567888
 Zn        18.6340317105       14.7035005329        3.9150515009
 Cl        19.8600151624       13.4458531395        2.7009989343
 Zn        18.6340153914        3.9150591262       14.7035042646
 Cl        19.8599989169        2.7010088190       13.4458580444
 Zn         5.7465343575        5.9612784426       16.7813865755
 Zn        16.5756637803       16.7968676495       16.7968445033
 Zn        16.5581842360        5.9510376666        5.9510374764
 Zn         5.7465445951       16.7813870501        5.9612712084
 Zn         5.7383203882        5.9600985299        5.9600966370
 Zn        16.5645030976       16.8040246811        5.9550008733
 Zn         5.7644254363       16.7821750050       16.7821845925
 Zn        16.5645053154        5.9549985072       16.8040354327
  N         3.5643586195        5.9771700422       16.7714991248
  N        14.3753358423        5.8972896529        5.8972912258
  N        18.7672674492       16.7757402593       16.7757461389
  N         7.9333898993       16.8092604606        5.9406666643
  N        18.7451355932        5.9812723815        5.9812620657
  N         7.9333792498        5.9406701247       16.8092637890
  N         3.5643607549       16.7715097397        5.9771762517
  N        14.3913586766       16.8430531724       16.8430475621
  N        16.5861287065        3.7770899657        5.9623767849
  N        16.5615525951       14.6035178288       16.7801552463
  N        16.6026843533       18.9721283467       16.7858022165
  N        16.5362813352        8.1499969195        5.9681751577
  N         5.7298583868       18.9706655966        5.9740762953
  N         5.7676536942        8.1503131952       16.7795506117
  N         5.7326637753        3.7798463413       16.7907440085
  N         5.7646332723       14.5995178409        5.9596843804
  N         5.7326722032       16.7907385379        3.7798448965
  N         5.7646276481        5.9596965912       14.5995199934
  N        16.6026796276       16.7858139072       18.9721286796
  N        16.5362960372        5.9681739495        8.1499913838
  N         5.7298449590        5.9740876010       18.9706664746
  N         5.7676673738       16.7795457080        8.1503128589
  N        16.5861295315        5.9623711284        3.7770930590
  N        16.5615509211       16.7801632315       14.6035100735
  N         5.7211657577        3.7784069898        5.9665155460
  N         5.7757980760       14.6002974698       16.7856592183
  N        16.5967911548       18.9728481496        5.9617772227
  N        16.5559740277        8.1512083605       16.7912445317
  N         5.7433892980       18.9720953173       16.7855775009
  N         5.7596306319        8.1493246364        5.9634831118
  N        16.5914918097        3.7775200606       16.7838183402
  N        16.5421882126       14.6038984784        5.9815848125
  N         3.5760035934       16.7746312075       16.7746337293
  N        14.3836193402       16.8469394894        5.9062651537
  N        18.7553320819       16.7746580514        5.9786191181
  N         7.9419212727       16.8088674173       16.8088764856
  N        18.7553319755        5.9786160288       16.7746647134
  N         7.9249854292        5.9362079551        5.9362045166
  N         3.5552126876        5.9786384038        5.9786363861
  N        14.3836121895        5.9062664424       16.8469328176
  N        16.5967911639        5.9617629800       18.9728513869
  N        16.5559703285       16.7912477079        8.1512057552
  N        16.5914945584       16.7838164139        3.7775233113
  N        16.5421955115        5.9815842139       14.6038947393
  N         5.7211585448        5.9665286065        3.7784062694
  N         5.7758033222       16.7856456235       14.6003013946
  N         5.7433984680       16.7855740144       18.9720962532
  N         5.7596271485        5.9634845152        8.1493269926
  C        11.1762249933       15.7746509555       15.7746503918
  H        11.1925371870       14.9993386647       14.9993383649
  C        11.1370552507        4.8519617212        4.8519629634
  H        11.1219455906        4.0767450847        4.0767473478
  C         0.3396024657       15.7159697558        4.9172797427
  H         0.3399726395       14.9405183420        4.1416668443
  C         0.3396084708        4.9172820472       15.7159697238
  H         0.3399930684        4.1416686544       14.9405177816
  C        11.1690307261        6.9716023353       15.7747656974
  H        11.1858667410        7.7473849064       15.0000180303
  C        11.1464150619       17.8950613979        4.8616012769
  H        11.1330341284       18.6723901045        4.0884334018
  C         0.3305568520        7.0395696269        4.9231497085
  H         0.3312641197        7.8155894932        4.1480737082
  C         0.3519597237       17.8373494583       15.7200223585
  H         0.3526646208       18.6124262935       14.9439480440
  C        11.1690267487       15.7747626518        6.9716026209
  H        11.1858528180       15.0000137394        7.7473843779
  C        11.1464044529        4.8616024389       17.8950634514
  H        11.1330121695        4.0884356839       18.6723926854
  C         0.3519487565       15.7200209891       17.8373506037
  H         0.3526358053       14.9439471708       18.6124285465
  C         0.3305641219        4.9231496209        7.0395685145
  H         0.3312837474        4.1480733342        7.8155874965
  C        11.1614664727        6.9669952389        6.9669929251
  H        11.1795019471        7.7422437522        7.7422411247
  C        11.1547703641       17.8900845956       17.8900849291
  H        11.1425393509       18.6653497483       18.6653491670
  C         0.3410589055        7.0363020997       17.8309359729
  H         0.3420709799        7.8128453697       18.6055895041
  C         0.3410668407       17.8309347064        7.0362995739
  H         0.3420898747       18.6055886332        7.8128429589
  C        15.4868536839       11.3763594020       15.7363403606
  H        14.6946140493       11.3737591404       14.9789989692
  C        15.5497348409        0.5531156237        4.8942614820
  H        14.7866319702        0.5519273708        4.1059542095
  C         4.6968078389       11.3747755156        4.9164854889
  H         3.9145776158       11.3742823922        4.1476210549
  C         4.6883369516        0.5552505762       15.7164030440
  H         3.9200396630        0.5549885604       14.9337988242
  C        15.4702404883       11.3756128759        7.0276629053
  H        14.6828174659       11.3729874709        7.7896107052
  C        15.5541045734        0.5531668710       17.8509517879
  H        14.7900755291        0.5521032450       18.6383425753
  C         4.7098277880       11.3757955636       17.8316391177
  H         3.9276659290       11.3754014459       18.6006541218
  C         4.6770900890        0.5545376044        7.0455495147
  H         3.9091319226        0.5548843105        7.8284361739
  C         6.8450093664       11.3751540191       15.7336705278
  H         7.6265646518       11.3756950510       14.9642456087
  C         6.7732942875        0.5548645353        4.9074083157
  H         7.5414892645        0.5546865707        4.1243671393
  C        17.6079368239       11.3781468830        4.9354429315
  H        18.3907439497       11.3790726555        4.1665990546
  C        17.6439184727        0.5560504078       15.7053629032
  H        18.4099489689        0.5571700580       14.9206415081
  C         6.8321672559       11.3744498655        7.0141268431
  H         7.6137434472       11.3751203245        7.7836154181
  C         6.7850074369        0.5570660079       17.8541356011
  H         7.5535109007        0.5575405689       18.6368241662
  C        17.6298258330       11.3784182166       17.8245329998
  H        18.4128384535       11.3796554507       18.5930219738
  C        17.6367976963        0.5562821670        7.0426592631
  H        18.4021977332        0.5577006488        7.8280193025
  C        15.4868534583       15.7363391570       11.3763582614
  H        14.6946129223       14.9789986495       11.3737611312
  C        15.5497354502        4.8942549404        0.5531184244
  H        14.7866327843        4.1059469801        0.5519312654
  C         4.6883380454       15.7164007570        0.5552576646
  H         3.9200394396       14.9337975967        0.5550072510
  C         4.6968052123        4.9164864137       11.3747738553
  H         3.9145746659        4.1476227175       11.3742777868
  C         6.8450112491       15.7336697286       11.3751548808
  H         7.6265671248       14.9642448414       11.3756927250
  C         6.7732942194        4.9074114560        0.5548621831
  H         7.5414893381        4.1243714294        0.5546831055
  C        17.6439202182       15.7053655266        0.5560497542
  H        18.4099494736       14.9206439517        0.5571678715
  C        17.6079348354        4.9354397713       11.3781399011
  H        18.3907469361        4.1665995036       11.3790560044
  C        15.4702384837        7.0276596797       11.3756122025
  H        14.6828202755        7.7896112044       11.3729929924
  C        15.5541066374       17.8509529367        0.5531696937
  H        14.7900784123       18.6383448486        0.5521067335
  C         4.6770883654        7.0455520855        0.5545412798
  H         3.9091283714        7.8284379231        0.5548940249
  C         4.7098293313       17.8316350265       11.3757963412
  H         3.9276680439       18.6006494888       11.3754020811
  C         6.8321678277        7.0141244716       11.3744561165
  H         7.6137453286        7.7836118291       11.3751349936
  C         6.7850086637       17.8541347580        0.5570546381
  H         7.5535120481       18.6368238971        0.5575159681
  C        17.6367955553        7.0426553493        0.5562827765
  H        18.4021930386        7.8280176333        0.5576985116
  C        17.6298279740       17.8245325175       11.3784106618
  H        18.4128414167       18.5930209954       11.3796415530
 Xe        14.3780966067       11.3499793225       11.3499744344
