     409
 i =     150, E =    -5183.7362410301
  N         2.8209997642        5.1980212413       15.9962485108
  C         1.5038443046        5.4685174200       16.2665383673
  N        13.6249817461        5.1103712836        5.1103701502
  C        12.3082266229        5.3862958199        5.3862936814
  N        19.5170133749       17.5559569204       16.0010505906
  C        20.8345655833       17.2871810844       16.2713099660
  N         8.6697753184       17.5970926278        5.1587532306
  C         9.9925599711       17.3391619483        5.4143781323
  N        19.4976459382        5.2020972880        6.7580391912
  C        20.8153761778        5.4726650528        6.4886348353
  N         8.6697733287        5.1587516689       17.5970961611
  C         9.9925588028        5.4143774435       17.3391638574
  N         2.8223595637       17.5481538830        6.7573752009
  C         1.5048081006       17.2807040052        6.4862644036
  N        13.6420460071       17.6272281844       17.6272261379
  C        12.3255016557       17.3521255877       17.3521242496
  N        15.8279960554        3.0284319699        5.1751037040
  C        16.0952793355        1.7137210419        5.4535133699
  N        15.7821999646       13.8567385043       16.0133607684
  C        16.0523409917       12.5371936934       16.2802719431
  N        15.8373288570       19.7210801601       17.5726654174
  C        16.1021110016       21.0363558407       17.2938750682
  N        15.7608997813        8.8928972092        6.7366415026
  C        16.0328993834       10.2131601602        6.4752746355
  N         6.4986281548       19.7202767189        5.1900257900
  C         6.2293747517       21.0359555862        5.4644338055
  N         6.5586769395        8.8938957285       16.0097626720
  C         6.2908051018       10.2137716854       16.2770347057
  N         6.5034185917        3.0324360563       17.5752421524
  C         6.2378765548        1.7158885538       17.2998902184
  N         6.5522956577       13.8551918844        6.7318782490
  C         6.2797489017       12.5359446197        6.4678795756
  N         4.9644808833       16.0034640136        3.0336936533
  C         5.2323912900       16.2736695886        1.7157261941
  N         4.9815098123        5.1906309971       13.8518108405
  C         5.2543095366        5.4612297833       12.5351389972
  N        17.3728340769       15.9966844640       19.7172921070
  C        17.1046725151       16.2646539473       21.0355707566
  N        17.3333056574        5.1973906393        8.8994162510
  C        17.0605075104        5.4708749465       10.2160003725
  N         4.9597785930        6.7614836495       19.7149069611
  C         5.2240590556        6.4907914909       21.0339138574
  N         4.9875398468       17.5500254135        8.9000056796
  C         5.2651476509       17.2833789422       10.2161891694
  N        17.3602388092        6.7539974235        3.0348720073
  C        17.0960297051        6.4842896331        1.7162979243
  N        17.3545943516       17.5519781926       13.8549403651
  C        17.0805147819       17.2841924367       12.5375845994
  N         4.9535090309        3.0335505036        6.7556252346
  C         5.2212957812        1.7150022171        6.4875389512
  N         4.9939737079       13.8528140520       17.5556075045
  C         5.2676933067       12.5360949596       17.2864307220
  N        17.3671575775       19.7193607873        6.7514742817
  C        17.0990013321       21.0371520157        6.4827102419
  N        17.3535640220        8.9002210915       17.5649450515
  C        17.0800713762       10.2162114219       17.2905706640
  N         4.9727813193       19.7163024905       15.9995110288
  C         5.2361688067       21.0350741548       16.2713724440
  N         4.9779280384        8.8988169906        5.1944406285
  C         5.2530889622       10.2150559231        5.4634984397
  N        17.3662116023        3.0342181040       15.9955796513
  C        17.1015585635        1.7153181254       16.2638616691
  N        17.3389093746       13.8556222143        5.2052484154
  C        17.0636765723       12.5383410649        5.4746527218
  N         2.8314875109       15.9982795209       17.5530825322
  C         1.5140855129       16.2700228616       17.2858508073
  N        13.6491044009       16.0772468804        6.6673225024
  C        12.3279195762       16.3397732395        6.4066170242
  N        19.5059886765       16.0005094064        5.1992614406
  C        20.8239227909       16.2686499471        5.4688472265
  N         8.7027341790       16.0371547395       16.0371561747
  C        10.0155402323       16.3200345389       16.3200355316
  N        19.5079128383        6.7541141331       17.5565056561
  C        20.8250356556        6.4848452745       17.2844536957
  N         8.6871691942        6.7061596375        6.7061589538
  C         9.9993821731        6.4218169504        6.4218144672
  N         2.8135796163        6.7576481801        5.2012551603
  C         1.4961122476        6.4884919096        5.4724157231
  N        13.6491020622        6.6673244385       16.0772449486
  C        12.3279168579        6.4066184142       16.3397720408
  N        15.8333407392        5.1728822284       19.7228696105
  C        16.0977578103        5.4521770562       21.0379545821
  N        15.7820968862       16.0259933305        8.8913589181
  C        16.0521305473       16.2865673135       10.2120309812
  N        15.8319174550       17.5717970474        3.0271899083
  C        16.0994078993       17.2932471827        1.7124597418
  N        15.7666553505        6.7450680501       13.8592196104
  C        16.0361883953        6.4793734014       12.5394381932
  N         6.4918250820        5.1832016268        3.0296877172
  C         6.2263035403        5.4609035261        1.7138659006
  N         6.5643131668       16.0139762803       13.8557336449
  C         6.2929533363       16.2796212462       12.5366623466
  N         6.5122500133       17.5703365747       19.7213848530
  C         6.2419361880       17.2972957435       21.0373501909
  N         6.5491944830        6.7346353277        8.8930483901
  C         6.2788059074        6.4698057462       10.2129278177
  N        19.5079156423       17.5565050273        6.7541121305
  C        20.8250377317       17.2844522150        6.4848435282
  N         8.6793014436       17.5936771199       17.5936759314
  C        10.0015710571       17.3352939152       17.3352933016
  N         2.8135789016        5.2012556725        6.7576462846
  C         1.4961118280        5.4724165298        6.4884899317
  N        13.6331322271        5.1187196553       17.6358946510
  C        12.3167651736        5.3939809763       17.3587078245
  N         2.8314872166       17.5530824870       15.9982785850
  C         1.5140852457       17.2858510761       16.2700216531
  N        13.6331327455       17.6358955659        5.1187168447
  C        12.3167665683       17.3587084020        5.3939792611
  N        19.5059864272        5.1992639544       16.0005099866
  C        20.8239206799        5.4688491574       16.2686513725
  N         8.6609931198        5.1507849444        5.1507855621
  C         9.9838803496        5.4069103154        5.4069087602
  N         6.5122467359       19.7213857753       17.5703375123
  C         6.2419324397       21.0373508597       17.2972977299
  N         6.5491950073        8.8930475115        6.7346367180
  C         6.2788077504       10.2129272338        6.4698055282
  N         6.4918240749        3.0296873251        5.1831999527
  C         6.2263021113        1.7138652437        5.4609007977
  N         6.5643120251       13.8557320156       16.0139783147
  C         6.2929515645       12.5366611155       16.2796228367
  N        15.8319144728        3.0271902847       17.5717927646
  C        16.0994054994        1.7124599608       17.2932431614
  N        15.7666562506       13.8592246183        6.7450639805
  C        16.0361889454       12.5394421181        6.4793709084
  N        15.8333379197       19.7228692313        5.1728843709
  C        16.0977546136       21.0379539757        5.4521813607
  N        15.7820956492        8.8913631712       16.0259902542
  C        16.0521294284       10.2120355626       16.2865646905
  N        17.3671559764        6.7514762217       19.7193619805
  C        17.0990016474        6.4827090960       21.0371534745
  N        17.3535676129       17.5649459471        8.9002178310
  C        17.0800735302       17.2905715992       10.2162077256
  N         4.9535086431        6.7556252522        3.0335518242
  C         5.2212963051        6.4875404510        1.7150033642
  N         4.9939768668       17.5556078189       13.8528142326
  C         5.2676961558       17.2864304235       12.5360956551
  N        17.3662130159       15.9955824336        3.0342170696
  C        17.1015599534       16.2638650296        1.7153176504
  N        17.3389098332        5.2052530580       13.8556206805
  C        17.0636769453        5.4746555199       12.5383389913
  N         4.9727822021       15.9995123303       19.7163016615
  C         5.2361709988       16.2713718249       21.0350729832
  N         4.9779259266        5.1944410096        8.8988174988
  C         5.2530862653        5.4634997156       10.2150569092
  N        17.3728344172       19.7172918828       15.9966816382
  C        17.1046716083       21.0355709026       16.2646511027
  N        17.3333022839        8.8994189237        5.1973919176
  C        17.0605050075       10.2160026164        5.4708756795
  N         4.9644772943        3.0336951926       16.0034670728
  C         5.2323875163        1.7157270981       16.2736723082
  N         4.9815114682       13.8518097049        5.1906286309
  C         5.2543124666       12.5351380779        5.4612276553
  N        17.3602421980        3.0348702668        6.7539987511
  C        17.0960304836        1.7162962698        6.4842923813
  N        17.3545943543       13.8549440755       17.5519766278
  C        17.0805143581       12.5375883789       17.2841910154
  N         4.9597819855       19.7149059201        6.7614821490
  C         5.2240602908       21.0339120227        6.4907894002
  N         4.9875371420        8.9000046455       17.5500288778
  C         5.2651447106       10.2161886233       17.2833809727
  N        19.4976457567        6.7580449545        5.2020948759
  C        20.8153767591        6.4886388870        5.4726630349
  N         8.6952504910        6.7088519291       16.0358161426
  C        10.0078825781        6.4258880643       16.3205383053
  N         2.8223581926        6.7573748554       17.5481546753
  C         1.5048063608        6.4862650460       17.2807054256
  N        13.6396733556        6.6637897408        6.6637884491
  C        12.3187662461        6.4020112832        6.4020086797
  N         2.8210013356       15.9962471119        5.1980217554
  C         1.5038467671       16.2665366247        5.4685169021
  N        13.6565783749       16.0735661556       16.0735647699
  C        12.3355857933       16.3363230019       16.3363225331
  N        19.5170136989       16.0010521906       17.5559575949
  C        20.8345658918       16.2713107471       17.2871817698
  N         8.6952539759       16.0358130131        6.7088544874
  C        10.0078854569       16.3205367965        6.4258892975
  N         6.5034228542       17.5752387384        3.0324348188
  C         6.2378809954       17.2998868479        1.7158880187
  N         6.5522943574        6.7318799056       13.8551929427
  C         6.2797465986        6.4678813251       12.5359447902
  N         6.4986260108        5.1900288065       19.7202774858
  C         6.2293744142        5.4644369933       21.0359564569
  N         6.5586807939       16.0097599501        8.8938972650
  C         6.2908082679       16.2770327504       10.2137728606
  N        15.8373286589       17.5726683231       19.7210800543
  C        16.1021119976       17.2938783264       21.0363558789
  N        15.7609024568        6.7366395882        8.8928929715
  C        16.0329015182        6.4752733546       10.2131560115
  N        15.8279971043        5.1750982412        3.0284332978
  C        16.0952816825        5.4535077047        1.7137217480
  N        15.7821984615       16.0133635584       13.8567338940
  C        16.0523404552       16.2802743492       12.5371891768
 Zn        14.4872448485       14.7761906839       14.7761880565
 Cl        12.9657548282       13.7232790750       13.7232801263
 Zn        14.5431180287        3.8442702597        3.8442720709
 Cl        13.3870831040        2.5766092554        2.5766141034
 Zn         3.6817210046       14.7089514896        3.9004852923
 Cl         2.4435798281       13.4736995792        2.6762823508
 Zn         3.6817187553        3.9004856867       14.7089516311
 Cl         2.4435800646        2.6762835872       13.4736958347
 Zn         7.8523126497        8.0087463249       14.7295695647
 Cl         9.0789769596        9.2412370405       13.4912734081
 Zn         7.7874974046       18.8811249258        3.8848121029
 Cl         8.9975392245       20.1289952874        2.6446315963
 Zn        18.6398558647        8.0502966884        3.9053272420
 Cl        19.8672147277        9.2980907191        2.6845273862
 Zn        18.6583447488       18.8421184985       14.7082905585
 Cl        19.8838669480       20.0661451048       13.4602678503
 Zn         7.8523148558       14.7295668453        8.0087465620
 Cl         9.0789787028       13.4912693039        9.2412365526
 Zn         7.7874952308        3.8848117753       18.8811271837
 Cl         8.9975324913        2.6446279127       20.1289984098
 Zn        18.6583438398       14.7082921016       18.8421181454
 Cl        19.8838624423       13.4602675437       20.0661458404
 Zn        18.6398591630        3.9053272699        8.0502947838
 Cl        19.8672243363        2.6845323637        9.2980868943
 Zn        14.4596992385        7.9593902592        7.9593905256
 Cl        12.9236443766        9.0017632681        9.0017635045
 Zn        14.5492653257       18.8939799280       18.8939793444
 Cl        13.3879729619       20.1598691482       20.1598688167
 Zn         3.6815497656        8.0556028079       18.8353619202
 Cl         2.4413547079        9.2946894927       20.0540280739
 Zn         3.6815528974       18.8353593318        8.0556021433
 Cl         2.4413635268       20.0540301087        9.2946895910
 Zn        14.4786407574       14.7951048772        7.9750801441
 Cl        12.9545116629       13.8363520331        9.1124539175
 Zn        14.5461068872        3.8459980571       18.8972983963
 Cl        13.3855532310        2.5800867821       20.1630675780
 Zn         3.6901768565       14.7071568424       18.8416720048
 Cl         2.4535144046       13.4707187764       20.0669616255
 Zn         3.6753769042        3.9053823963        8.0518813072
 Cl         2.4343820264        2.6880657495        9.2909381277
 Zn         7.8478484154        8.0090341514        8.0090345975
 Cl         9.0752995380        9.2443019276        9.2442980306
 Zn         7.7966217921       18.8767135410       18.8767126503
 Cl         9.0121121026       20.1179094997       20.1179082284
 Zn        18.6558227524        8.0469515249       18.8535789049
 Cl        19.8855208830        9.2841525727       20.0826001164
 Zn        18.6558259122       18.8535792255        8.0469497230
 Cl        19.8855245605       20.0825992108        9.2841517270
 Zn        14.4786382753        7.9750854108       14.7951029740
 Cl        12.9545027234        9.1124639072       13.8363664058
 Zn        14.5461076621       18.8972996059        3.8459976185
 Cl        13.3855529055       20.1630696732        2.5800888740
 Zn         3.6753760279        8.0518835326        3.9053804825
 Cl         2.4343818157        9.2909426792        2.6880641777
 Zn         3.6901777626       18.8416715846       14.7071559629
 Cl         2.4535151249       20.0669580117       13.4707152932
 Zn         7.8594503113       14.7323047254       14.7323075136
 Cl         9.0849403338       13.4967399731       13.4967446164
 Zn         7.7777145553        3.8739636238        3.8739625492
 Cl         8.9840044066        2.6283701375        2.6283667193
 Zn        18.6473129195       14.7074235282        3.9096525623
 Cl        19.8718925659       13.4494209115        2.6956840512
 Zn        18.6473128995        3.9096546916       14.7074222307
 Cl        19.8718899722        2.6956847432       13.4494175450
 Zn         5.7496850932        5.9615133679       16.7812415131
 Zn        16.5829806534       16.8041055615       16.8041038255
 Zn        16.5635857470        5.9479054352        5.9479052320
 Zn         5.7496862967       16.7812394497        5.9615133998
 Zn         5.7408084196        5.9601335904        5.9601355372
 Zn        16.5721665015       16.8123424154        5.9506116664
 Zn         5.7695283638       16.7820155343       16.7820145640
 Zn        16.5721628042        5.9506140518       16.8123410669
  N         3.5679394048        5.9778995020       16.7713940691
  N        14.3784991957        5.8858174953        5.8858170566
  N        18.7699901193       16.7778534698       16.7778540427
  N         7.9358979154       16.8099674455        5.9403785129
  N        18.7508149022        5.9795627699        5.9795605934
  N         7.9358960460        5.9403771401       16.8099702504
  N         3.5679416201       16.7713926146        5.9778997149
  N        14.3954544148       16.8518035345       16.8518014474
  N        16.5931386029        3.7777661954        5.9615308092
  N        16.5696131393       14.6028274611       16.7842279582
  N        16.6058165233       18.9734022172       16.7881288603
  N        16.5469346651        8.1492919173        5.9616946552
  N         5.7310804419       18.9707515313        5.9742703490
  N         5.7699614985        8.1504759990       16.7798080908
  N         5.7337917520        3.7796689392       16.7906971728
  N         5.7668187067       14.5996673547        5.9595158950
  N         5.7337955166       16.7906940872        3.7796684144
  N         5.7668171941        5.9595174226       14.5996679124
  N        16.6058174776       16.7881295585       18.9734020009
  N        16.5469359399        5.9616918164        8.1492890271
  N         5.7310779252        5.9742714797       18.9707532082
  N         5.7699632916       16.7798056072        8.1504766871
  N        16.5931366479        5.9615281820        3.7777673466
  N        16.5696117824       16.7842298598       14.6028233279
  N         5.7224810141        3.7782775661        5.9666027221
  N         5.7783905614       14.6004926256       16.7855029113
  N        16.6010298081       18.9755579075        5.9587839920
  N        16.5685894081        8.1490153489       16.8001350974
  N         5.7449009913       18.9719773362       16.7854928638
  N         5.7618577728        8.1494377551        5.9632090153
  N        16.5981957889        3.7770605628       16.7871540940
  N        16.5544600586       14.6046219346        5.9724209582
  N         3.5783629827       16.7743041263       16.7743030611
  N        14.3872221452       16.8586373136        5.8916041165
  N        18.7599551272       16.7795488540        5.9765606978
  N         7.9450173386       16.8093691134       16.8093692198
  N        18.7599529548        5.9765629342       16.7795490499
  N         7.9272746740        5.9352560470        5.9352569594
  N         3.5596322330        5.9789195570        5.9789196068
  N        14.3872199856        5.8916073856       16.8586350393
  N        16.6010286600        5.9587845931       18.9755587444
  N        16.5685919827       16.8001363172        8.1490113439
  N        16.5981990537       16.7871567732        3.7770600676
  N        16.5544571770        5.9724266347       14.6046191307
  N         5.7224809842        5.9666027318        3.7782784281
  N         5.7783914204       16.7855032233       14.6004935152
  N         5.7449022375       16.7854936245       18.9719763803
  N         5.7618575251        5.9632082597        8.1494386000
  C        11.1816825407       15.7792627358       15.7792639666
  H        11.2000526892       15.0041342186       15.0041369298
  C        11.1365760012        4.8466099208        4.8466083713
  H        11.1195650168        4.0715579211        4.0715577597
  C         0.3433340064       15.7172630892        4.9177222055
  H         0.3432229408       14.9417974673        4.1420742996
  C         0.3433316996        4.9177236112       15.7172647479
  H         0.3432207333        4.1420760097       14.9417989217
  C        11.1751924176        6.9633593807       15.7795848128
  H        11.1954816786        7.7391345222       15.0052325277
  C        11.1454374129       17.9008233679        4.8560957651
  H        11.1291570916       18.6785574480        4.0835985518
  C         0.3356968932        7.0392930849        4.9224669593
  H         0.3363437246        7.8152717950        4.1473297356
  C         0.3543423157       17.8376359244       15.7202396823
  H         0.3549786461       18.6128200234       14.9442513231
  C        11.1751969386       15.7795847572        6.9633595385
  H        11.1954898371       15.0052323873        7.7391340499
  C        11.1454373506        4.8560967680       17.9008241545
  H        11.1291586111        4.0836000155       18.6785586721
  C         0.3543426260       15.7202414718       17.8376370410
  H         0.3549806661       14.9442546174       18.6128227398
  C         0.3356951834        4.9224673904        7.0392892621
  H         0.3363396585        4.1473288330        7.8152671254
  C        11.1665032132        6.9607013227        6.9606980272
  H        11.1875457997        7.7357590873        7.7357554387
  C        11.1557860931       17.8937832647       17.8937816166
  H        11.1419216657       18.6689563199       18.6689533116
  C         0.3455043033        7.0367464687       17.8327225705
  H         0.3469583888        7.8131646065       18.6074949624
  C         0.3455058209       17.8327212326        7.0367450233
  H         0.3469593734       18.6074940345        7.8131626260
  C        15.4942119067       11.3732759436       15.7427295096
  H        14.6997956024       11.3690917467       14.9877633668
  C        15.5528135430        0.5555698414        4.8939405100
  H        14.7900002670        0.5551779262        4.1052986297
  C         4.6982020409       11.3749299748        4.9173895823
  H         3.9157564477       11.3744314607        4.1487344552
  C         4.6891692762        0.5550372927       15.7164216267
  H         3.9209472490        0.5546958903       14.9337610000
  C        15.4783337584       11.3760674724        7.0187903817
  H        14.6882307296       11.3740343212        7.7777983014
  C        15.5563938805        0.5539062775       17.8516043104
  H        14.7926075972        0.5532840421       18.6393163555
  C         4.7114247918       11.3760684772       17.8305989733
  H         3.9290638263       11.3757580314       18.5994163816
  C         4.6781168853        0.5545239562        7.0458265975
  H         3.9103173999        0.5548834657        7.8288425752
  C         6.8472237202       11.3752160810       15.7333063580
  H         7.6288739479       11.3757202447       14.9639767334
  C         6.7734741638        0.5548026354        4.9067341141
  H         7.5414260063        0.5546079068        4.1234488672
  C        17.6178023120       11.3773298660        4.9291672207
  H        18.4006524791       11.3776068050        4.1604493713
  C        17.6463151240        0.5559624116       15.7055105895
  H        18.4124495416        0.5564422400       14.9209001315
  C         6.8340486302       11.3745964048        7.0144865738
  H         7.6156566235       11.3753110122        7.7839304432
  C         6.7854957782        0.5569800453       17.8545346014
  H         7.5539322529        0.5575032376       18.6373014817
  C        17.6361605217       11.3782955648       17.8313219208
  H        18.4186170461       11.3807571497       18.6002846839
  C        17.6402497870        0.5571256890        7.0428415029
  H        18.4057257274        0.5573149047        7.8281251964
  C        15.4942114887       15.7427323051       11.3732709082
  H        14.6997949340       14.9877667575       11.3690850578
  C        15.5528186951        4.8939334499        0.5555698546
  H        14.7900076379        4.1052889844        0.5551771315
  C         4.6891714183       15.7164208042        0.5550357893
  H         3.9209473560       14.9337621382        0.5546940183
  C         4.6981985588        4.9173918377       11.3749314608
  H         3.9157523451        4.1487370496       11.3744326611
  C         6.8472255590       15.7333042725       11.3752179510
  H         7.6288744059       14.9639735360       11.3757237079
  C         6.7734758153        4.9067376335        0.5548025017
  H         7.5414282013        4.1234530023        0.5546060372
  C        17.6463161768       15.7055132550        0.5559621333
  H        18.4124503205       14.9209020181        0.5564435370
  C        17.6178038581        4.9291685063       11.3773284408
  H        18.4006545253        4.1604513524       11.3776073510
  C        15.4783341578        7.0187903540       11.3760616619
  H        14.6882302389        7.7777976809       11.3740235829
  C        15.5563958830       17.8516082072        0.5539064305
  H        14.7926098726       18.6393201118        0.5532848951
  C         4.6781159415        7.0458281021        0.5545260454
  H         3.9103153710        7.8288426036        0.5548861986
  C         4.7114279847       17.8305981848       11.3760686655
  H         3.9290673768       18.5994164385       11.3757576551
  C         6.8340466889        7.0144873583       11.3745964836
  H         7.6156550348        7.7839308968       11.3753102292
  C         6.7855005323       17.8545313263        0.5569795672
  H         7.5539376622       18.6372973904        0.5575030390
  C        17.6402479122        7.0428408682        0.5571282509
  H        18.4057207465        7.8281275405        0.5573190134
  C        17.6361626993       17.8313225447       11.3782920520
  H        18.4186198638       18.6002841448       11.3807537359
 Xe        13.5060613643       11.3505119147       11.3505179397
