     409
 i =     150, E =    -5183.7583870015
  N         2.7725612764        5.1955651007       16.0118757160
  C         1.4549031911        5.4660106785       16.2812587221
  N        13.5857696265        5.1881487609        5.1881564273
  C        12.2684636455        5.4588011899        5.4588057295
  N        19.4612146934       17.5696341932       16.0134553845
  C        20.7787810295       17.2997818678       16.2836738740
  N         8.6366661660       17.5712969887        5.1964391404
  C         9.9543261788       17.3022310120        5.4670334623
  N        19.4475836754        5.1964970831        6.7526171018
  C        20.7654611222        5.4681301591        6.4841837819
  N         8.6366604554        5.1964225570       17.5712776963
  C         9.9543283988        5.4670966836       17.3023040018
  N         2.7725441832       17.5670241050        6.7523997280
  C         1.4548914065       17.2967658006        6.4825234747
  N        13.5971167492       17.5662497537       17.5655119625
  C        12.2790473617       17.2961484291       17.2979194429
  N        15.7427165467        3.0372751881        5.1933396315
  C        16.0128073884        1.7199946798        5.4649072544
  N        15.7519116572       13.8597792513       16.0106977651
  C        16.0224101229       12.5423131532       16.2791760443
  N        15.7489294379       19.7219518864       17.5665272507
  C        16.0178145522       21.0399093198       17.2962552528
  N        15.7369947676        8.9051796837        6.7561066300
  C        16.0106445918       10.2223809877        6.4885731362
  N         6.4821582760       19.7238887324        5.1981783835
  C         6.2119696402       21.0412938644        5.4693126045
  N         6.4842600883        8.9050865960       16.0125604977
  C         6.2156164752       10.2226957297       16.2836580787
  N         6.4847980368        3.0416681506       17.5707882652
  C         6.2158899343        1.7237974751       17.3004332103
  N         6.4855457219       13.8588413567        6.7509243761
  C         6.2144553389       12.5413634600        6.4808512758
  N         4.9287966054       16.0144390493        3.0405328526
  C         5.2001163436       16.2841361507        1.7231408873
  N         4.9287270696        5.1952891060       13.8598651307
  C         5.1979501758        5.4652444742       12.5422012830
  N        17.3045851130       16.0106237258       19.7226203539
  C        17.0331235763       16.2796580040       21.0403213982
  N        17.2925802254        5.2006053169        8.9031775590
  C        17.0268612304        5.4729066881       10.2210513064
  N         4.9265352490        6.7543990060       19.7222850085
  C         5.1962533017        6.4856021899       21.0403814909
  N         4.9277361319       17.5675518108        8.9051558725
  C         5.1989937108       17.2989601858       10.2227460451
  N        17.2945809253        6.7534768897        3.0391120917
  C        17.0261839994        6.4835577716        1.7210057215
  N        17.3085581939       17.5664461446       13.8586689656
  C        17.0391856347       17.2946147621       12.5413482510
  N         4.9205395262        3.0391375331        6.7529033112
  C         5.1932571468        1.7214989706        6.4849586396
  N         4.9306911919       13.8610967425       17.5706534207
  C         5.2005264465       12.5434294640       17.3006687105
  N        17.3001265264       19.7221572231        6.7525067387
  C        17.0288592856       21.0398730396        6.4831658441
  N        17.3041486030        8.9031799144       17.5653099191
  C        17.0365288246       10.2211002740       17.2946021984
  N         4.9316002845       19.7246756362       16.0145711722
  C         5.2012744802       21.0424259823       16.2844141330
  N         4.9236328999        8.9043740942        5.1952922410
  C         5.1953919749       10.2216766903        5.4650410128
  N        17.3010915005        3.0395422703       16.0093955909
  C        17.0320072865        1.7216029403       16.2795669844
  N        17.3013010013       13.8585317507        5.2001495735
  C        17.0312489284       12.5413617203        5.4724152245
  N         2.7770995498       16.0144701877       17.5703399893
  C         1.4594304090       16.2841040076       17.3001088479
  N        13.5924394330       16.0158161658        6.7527497651
  C        12.2749058153       16.2866015276        6.4834341922
  N        19.4564008700       16.0121330729        5.1948653804
  C        20.7740940311       16.2813214381        5.4656062824
  N         8.6394170322       16.0145943512       16.0139868913
  C         9.9571120968       16.2825172628       16.2842451391
  N        19.4560890642        6.7503252293       17.5682040115
  C        20.7739154175        6.4814579295       17.2974107362
  N         8.6319759818        6.7474340430        6.7474329139
  C         9.9492474034        6.4763758081        6.4763776269
  N         2.7647970697        6.7533271409        5.1969488245
  C         1.4469645630        6.4844946437        5.4683924331
  N        13.5924247580        6.7527804068       16.0157750322
  C        12.2749070432        6.4835211447       16.2866650910
  N        15.7473718564        5.1934950384       19.7213709216
  C        16.0150825954        5.4649441612       21.0392075202
  N        15.7481396802       16.0099656682        8.9050430336
  C        16.0211222201       16.2780752403       10.2221257694
  N        15.7455559438       17.5660255508        3.0385116233
  C        16.0158323000       17.2954521758        1.7209538421
  N        15.7442723501        6.7553788236       13.8604138313
  C        16.0145919949        6.4878533930       12.5427665738
  N         6.4753978241        5.1956944407        3.0397225533
  C         6.2086485238        5.4682983801        1.7220475324
  N         6.4868597258       16.0148718918       13.8605965644
  C         6.2165438402       16.2846983616       12.5431362529
  N         6.4876521851       17.5703865360       19.7249039323
  C         6.2175382414       17.3002035321       21.0426801868
  N         6.4808671953        6.7496859162        8.9023677518
  C         6.2121499083        6.4802470523       10.2204268032
  N        19.4560938468       17.5682113766        6.7503697015
  C        20.7739242504       17.2973375080        6.4815680948
  N         8.6409742108       17.5704939896       17.5698960947
  C         9.9583624447       17.2984953475       17.3002345178
  N         2.7648078379        5.1969722519        6.7533043891
  C         1.4469727861        5.4684074464        6.4844800141
  N        13.5925239528        5.1952072009       17.5701764780
  C        12.2749157361        5.4666405723       17.3018230615
  N         2.7771121406       17.5703410241       16.0144751703
  C         1.4594483166       17.3001049853       16.2841133091
  N        13.5924979404       17.5702136683        5.1951871743
  C        12.2749055103       17.3017616857        5.4665548428
  N        19.4564262879        5.1948200086       16.0121049081
  C        20.7740991977        5.4655022791       16.2813889661
  N         8.6295793533        5.1917541802        5.1917555336
  C         9.9477085149        5.4604546657        5.4604579986
  N         6.4875883247       19.7249908610       17.5703252050
  C         6.2173102325       21.0427606600       17.3003700072
  N         6.4808659666        8.9023744870        6.7496817137
  C         6.2121477416       10.2204343014        6.4802476650
  N         6.4753875908        3.0397337925        5.1957012641
  C         6.2086441962        1.7220602800        5.4683047252
  N         6.4869051105       13.8606831650       16.0147889045
  C         6.2167822566       12.5432110009       16.2848705431
  N        15.7454400663        3.0385944294       17.5659674264
  C        16.0162406488        1.7210379188       17.2959055565
  N        15.7442863665       13.8604551420        6.7554108399
  C        16.0146160316       12.5428007552        6.4878933702
  N        15.7473561238       19.7214227753        5.1935116129
  C        16.0150810089       21.0392517933        5.4649509466
  N        15.7482640973        8.9051301566       16.0098968449
  C        16.0205949733       10.2222111345       16.2786449324
  N        17.3001284389        6.7525220383       19.7221181956
  C        17.0288509268        6.4831716945       21.0398307629
  N        17.3040188503       17.5653647105        8.9030319106
  C        17.0370740520       17.2940458510       10.2209684384
  N         4.9205479894        6.7528991954        3.0391347363
  C         5.1932604634        6.4849541982        1.7214889951
  N         4.9306720552       17.5708101708       13.8609280991
  C         5.2003079972       17.3005160024       12.5433133741
  N        17.3011920545       16.0094530760        3.0394194707
  C        17.0315771574       16.2791254138        1.7214864591
  N        17.3013195541        5.2001326843       13.8584684521
  C        17.0312352374        5.4723892862       12.5413136344
  N         4.9316359313       16.0146970415       19.7245105000
  C         5.2014818532       16.2842638672       21.0423110929
  N         4.9236326556        5.1953006291        8.9043607947
  C         5.1953922866        5.4650425010       10.2216628638
  N        17.3046012895       19.7229199373       16.0104143887
  C        17.0336276606       21.0405301911       16.2800802294
  N        17.2925903989        8.9032097514        5.2005904310
  C        17.0268878690       10.2210796810        5.4729212252
  N         4.9288298964        3.0405935362       16.0144236004
  C         5.1999426570        1.7232030231       16.2843064217
  N         4.9287407764       13.8598867476        5.1952930050
  C         5.1979573736       12.5422195381        5.4652508672
  N        17.2945860415        3.0391338412        6.7534922059
  C        17.0261960587        1.7210294762        6.4835644963
  N        17.3086017752       13.8589841302       17.5661226575
  C        17.0385644573       12.5415753535       17.2951198757
  N         4.9265420856       19.7222973876        6.7544019767
  C         5.1962585116       21.0403947674        6.4856020889
  N         4.9276918314        8.9052180719       17.5675240283
  C         5.1991752762       10.2228123496       17.2991417871
  N        19.4475658181        6.7525936541        5.1965188502
  C        20.7654533546        6.4841703222        5.4681427840
  N         8.6369809709        6.7524177277       16.0155125674
  C         9.9544707194        6.4833647110       16.2866109972
  N         2.7725395903        6.7523964585       17.5670032463
  C         1.4548802404        6.4824308756       17.2968419672
  N        13.5878270014        6.7441566499        6.7441619992
  C        12.2698257714        6.4748342287        6.4748374412
  N         2.7725681323       16.0118945887        5.1955649490
  C         1.4549089046       16.2811869609        5.4661043323
  N        13.5946720613       16.0104699288       16.0097605624
  C        12.2775043493       16.2801729198       16.2819469314
  N        19.4611102400       16.0136486374       17.5694372098
  C        20.7787358160       16.2837681588       17.2996826748
  N         8.6369850421       16.0155223539        6.7524405869
  C         9.9544760647       16.2865351716        6.4833019312
  N         6.4847657589       17.5708186534        3.0416217628
  C         6.2160556889       17.3002614150        1.7237527054
  N         6.4855403923        6.7509124043       13.8588306986
  C         6.2144530112        6.4808408286       12.5413521391
  N         6.4821388808        5.1981802936       19.7238687988
  C         6.2119612413        5.4693119412       21.0412766912
  N         6.4843121988       16.0125946644        8.9050490396
  C         6.2154432615       16.2834751565       10.2226541379
  N        15.7488776033       17.5666907720       19.7217719458
  C        16.0172847893       17.2958297904       21.0397604399
  N        15.7369817712        6.7561220856        8.9051653536
  C        16.0106130154        6.4885582036       10.2223596360
  N        15.7427151947        5.1933241220        3.0372508040
  C        16.0127997534        5.4648993169        1.7199674673
  N        15.7518998848       16.0109625249       13.8596014119
  C        16.0230586662       16.2786641233       12.5421570227
 Zn        14.4570246917       14.7184622916       14.7182565062
 Cl        13.2399542635       13.4775938428       13.4777079199
 Zn        14.4506218080        3.8973624955        3.8973633675
 Cl        13.2276840354        2.6603318172        2.6603487176
 Zn         3.6347957683       14.7208017189        3.9013846565
 Cl         2.4058797867       13.4869900121        2.6673601937
 Zn         3.6347989153        3.9013838251       14.7207799537
 Cl         2.4058520128        2.6673559750       13.4870026484
 Zn         7.7789923293        8.0454741538       14.7203935983
 Cl         9.0124600918        9.2783550389       13.4899568258
 Zn         7.7767252099       18.8661522535        3.9038351938
 Cl         9.0098414535       20.0996006608        2.6738139763
 Zn        18.5840628162        8.0469073068        3.9039198323
 Cl        19.8148843234        9.2859865557        2.6767406889
 Zn        18.6007054386       18.8626753212       14.7197514213
 Cl        19.8320507444       20.0937436324       13.4854877019
 Zn         7.7790040262       14.7203917149        8.0454862865
 Cl         9.0124613600       13.4899380364        9.2783543043
 Zn         7.7767439700        3.9038351325       18.8661517396
 Cl         9.0098274644        2.6738088843       20.0996294147
 Zn        18.6006741698       14.7198944466       18.8624654948
 Cl        19.8318667584       13.4855502459       20.0936561559
 Zn        18.5840828999        3.9039230758        8.0469170444
 Cl        19.8148901226        2.6767393427        9.2860030434
 Zn        14.4422272404        8.0417049499        8.0416842987
 Cl        13.1447562125        9.2409407497        9.2409420065
 Zn        14.4559557960       18.8598076420       18.8595464059
 Cl        13.2202091578       20.0902537693       20.0904073279
 Zn         3.6327583293        8.0469411888       18.8599300573
 Cl         2.3993860548        9.2806591668       20.0896783154
 Zn         3.6327636637       18.8599524271        8.0469294383
 Cl         2.3993745330       20.0896659844        9.2806681479
 Zn        14.4510012855       14.7214954176        8.0476385352
 Cl        13.2006782763       13.4970720618        9.2708163173
 Zn        14.4535494814        3.9001318917       18.8614146271
 Cl        13.2221537068        2.6659516113       20.0926193882
 Zn         3.6368886871       14.7219285897       18.8651145100
 Cl         2.4048303338       13.4888057140       20.0965646543
 Zn         3.6284120273        3.9027265731        8.0464182286
 Cl         2.3968582680        2.6715477348        9.2805902819
 Zn         7.7759534094        8.0418645139        8.0418644107
 Cl         9.0040153232        9.2762019178        9.2761990585
 Zn         7.7809765593       18.8646422232       18.8644862103
 Cl         9.0153574616       20.0956136527       20.0957083102
 Zn        18.5960320752        8.0441370382       18.8614736004
 Cl        19.8256814010        9.2788044388       20.0939107767
 Zn        18.5960177840       18.8615262343        8.0441338144
 Cl        19.8257185430       20.0938863388        9.2788277646
 Zn        14.4510530138        8.0476450102       14.7214926825
 Cl        13.2006655770        9.2708098707       13.4971209341
 Zn        14.4535956450       18.8614477936        3.9001042705
 Cl        13.2221206848       20.0926006588        2.6659509187
 Zn         3.6284177945        8.0464255072        3.9027118252
 Cl         2.3968675398        9.2806004513        2.6715369916
 Zn         3.6368505987       18.8651601357       14.7218998328
 Cl         2.4047350845       20.0965691647       13.4888159938
 Zn         7.7801694782       14.7210600391       14.7209315948
 Cl         9.0150700995       13.4899194133       13.4899919472
 Zn         7.7660952598        3.9000795637        3.9000820866
 Cl         8.9974743400        2.6670987563        2.6671030520
 Zn        18.5952207605       14.7183249402        3.9033911941
 Cl        19.8259916527       13.4809149661        2.6748286250
 Zn        18.5951909896        3.9033936226       14.7182833160
 Cl        19.8260070001        2.6748263389       13.4809323096
 Zn         5.7035131002        5.9698823909       16.7865574092
 Zn        16.5308833088       16.7859315674       16.7848949322
 Zn        16.5111697032        5.9668727103        5.9668894400
 Zn         5.7035911943       16.7866101277        5.9698624907
 Zn         5.6934781439        5.9682333387        5.9682089125
 Zn        16.5204935149       16.7859608271        5.9681794880
 Zn         5.7099204812       16.7891823995       16.7885708653
 Zn        16.5206197414        5.9681906798       16.7857652455
  N         3.5190816901        5.9737042091       16.7895633602
  N        14.3328894125        5.9658636099        5.9658640597
  N        18.7146526597       16.7913010689       16.7911027542
  N         7.8901997245       16.7926950894        5.9739115537
  N        18.7009702290        5.9736024175        5.9736129644
  N         7.8901944363        5.9738774290       16.7926932340
  N         3.5190983193       16.7895928837        5.9736913164
  N        14.3426679933       16.7886036229       16.7865113119
  N        16.5181667814        3.7845853759        5.9729211702
  N        16.5301633703       14.6057404423       16.7888984700
  N        16.5272859891       18.9757082480       16.7885568590
  N        16.5124919292        8.1572552535        5.9765949636
  N         5.7042664132       18.9763732316        5.9756081999
  N         5.7051470237        8.1584270196       16.7893383101
  N         5.7062865256        3.7875268972       16.7927542302
  N         5.7075778163       14.6057065450        5.9730584510
  N         5.7061918884       16.7928316973        3.7874837298
  N         5.7075612579        5.9730488221       14.6056883342
  N        16.5275350252       16.7890640032       18.9754504533
  N        16.5125201630        5.9766283338        8.1572352127
  N         5.7042578740        5.9756044502       18.9763599165
  N         5.7052704325       16.7894298889        8.1583776576
  N        16.5181589868        5.9729015597        3.7845645636
  N        16.5297383953       16.7896305696       14.6054603036
  N         5.6963082976        3.7858392723        5.9728186973
  N         5.7088952800       14.6072480871       16.7926423936
  N        16.5245771569       18.9751364926        5.9723203399
  N        16.5248280970        8.1573224385       16.7881795334
  N         5.7096566419       18.9781873797       16.7924909339
  N         5.7013417693        8.1567246849        5.9723796528
  N        16.5227559496        3.7854248214       16.7874989769
  N        16.5223567337       14.6058351286        5.9762509878
  N         3.5236520972       16.7924500731       16.7924543034
  N        14.3388250299       16.7921141520        5.9731308463
  N        18.7095646132       16.7906058038        5.9721454663
  N         7.8937542149       16.7934013166       16.7918058918
  N        18.7095694773        5.9721260906       16.7905400504
  N         7.8839478816        5.9702527155        5.9702501870
  N         3.5110762907        5.9742902297        5.9742659105
  N        14.3388461707        5.9731436405       16.7920927200
  N        16.5245790289        5.9723058475       18.9750740342
  N        16.5243211165       16.7886240082        8.1572330870
  N        16.5231143311       16.7878234812        3.7853328126
  N        16.5224314440        5.9762851049       14.6057815998
  N         5.6963167387        5.9728183662        3.7858282381
  N         5.7088395181       16.7927543103       14.6071142429
  N         5.7097196029       16.7925703795       18.9780517315
  N         5.7013418426        5.9723903877        8.1567135292
  C        11.1162624537       15.7307919169       15.7327199267
  H        11.1136397553       14.9560422283       14.9563920049
  C        11.1073058890        4.9091805076        4.9091860096
  H        11.1059771909        4.1336571835        4.1336635141
  C         0.2945668296       15.7306641046        4.9156857180
  H         0.2947714322       14.9549146871        4.1403327774
  C         0.2945723434        4.9155844149       15.7307343224
  H         0.2947605994        4.1402931085       14.9549241510
  C        11.1146478632        7.0344586379       15.7367338593
  H        11.1149116558        7.8102522797       14.9613817936
  C        11.1146063369       17.8523669037        4.9162393629
  H        11.1146028991       18.6273291370        4.1400917718
  C         0.2861723412        7.0350355520        4.9185575749
  H         0.2862238430        7.8108253886        4.1432562006
  C         0.2991600919       17.8501599615       15.7332699647
  H         0.2992037281       18.6252095954       14.9571989074
  C        11.1146540844       15.7366548250        7.0343885833
  H        11.1149145041       14.9613500451        7.8102286454
  C        11.1146223696        4.9163119425       17.8524380064
  H        11.1146286726        4.1401167917       18.6273517279
  C         0.2990825046       15.7332975399       17.8501186372
  H         0.2990590568       14.9572151590       18.6251664423
  C         0.2861941515        4.9185594803        7.0350347385
  H         0.2862864479        4.1432573674        7.8108259621
  C        11.1101439570        7.0260140828        7.0260168053
  H        11.1130112337        7.8016128688        7.8016144524
  C        11.1197637030       17.8476833996       17.8496069963
  H        11.1215177855       18.6240530470       18.6243817434
  C         0.2942845945        7.0327267633       17.8470872940
  H         0.2942533481        7.8088075737       18.6221375233
  C         0.2942953904       17.8470047642        7.0328291252
  H         0.2942720888       18.6221140038        7.8088494378
  C        15.4715502796       11.3827557380       15.7277802551
  H        14.6959558272       11.3840058773       14.9523714135
  C        15.4646871538        0.5590635359        4.9134639458
  H        14.6909362134        0.5584515308        4.1360930307
  C         4.6460148371       11.3825544949        4.9149907857
  H         3.8701185337       11.3835854383        4.1397767361
  C         4.6505063802        0.5624515144       15.7337416650
  H         3.8753731465        0.5619933889       14.9577470305
  C        15.4620983047       11.3835756176        7.0387079380
  H        14.6840731830       11.3859753467        7.8115105682
  C        15.4666946144        0.5601747244       17.8463749894
  H        14.6909160718        0.5598861797       18.6217283944
  C         4.6493530126       11.3830794870       17.8503089550
  H         3.8733732471       11.3829201815       18.6254533203
  C         4.6451575501        0.5603753949        7.0363724971
  H         3.8700613746        0.5595789655        7.8123610138
  C         6.7670231468       11.3829534159       15.7341797074
  H         7.5428059689       11.3829481527       14.9588561562
  C         6.7609595226        0.5621753285        4.9187127461
  H         7.5363477909        0.5631410500        4.1429486727
  C        17.5801958512       11.3800750020        4.9228138801
  H        18.3555717108       11.3780996776        4.1470422592
  C        17.5828299269        0.5613334468       15.7291751315
  H        18.3577340456        0.5616837236       14.9529729055
  C         6.7640597085       11.3801925126        7.0306185639
  H         7.5399935951       11.3789454720        7.8058185589
  C         6.7671890678        0.5635576302       17.8505455049
  H         7.5430969358        0.5640827404       18.6257453389
  C        17.5883372412       11.3807266739       17.8450582263
  H        18.3639426986       11.3797249069       18.6205745641
  C        17.5762909256        0.5609706821        7.0353211763
  H        18.3498334729        0.5617918344        7.8128821901
  C        15.4721653568       15.7271572064       11.3826522720
  H        14.6960782916       14.9522302907       11.3840211349
  C        15.4646892200        4.9134569109        0.5590243290
  H        14.6909437185        4.1360808581        0.5584162441
  C         4.6507073082       15.7335829975        0.5623514540
  H         3.8754538063       14.9577066110        0.5619514319
  C         4.6460091165        4.9149889501       11.3825352697
  H         3.8701085823        4.1397787405       11.3835587292
  C         6.7668267228       15.7339838931       11.3829072020
  H         7.5427545211       14.9587982165       11.3829432865
  C         6.7609566231        4.9187097272        0.5621633427
  H         7.5363452921        4.1429470942        0.5631330005
  C        17.5823062498       15.7287129032        0.5611261151
  H        18.3575680861       14.9528642807        0.5615547934
  C        17.5801809840        4.9227869798       11.3800308623
  H        18.3555865097        4.1470469919       11.3780632678
  C        15.4620611093        7.0386765388       11.3835555952
  H        14.6840631465        7.8115067201       11.3859933687
  C        15.4662128224       17.8458720376        0.5600634697
  H        14.6908113262       18.6215894060        0.5598666188
  C         4.6451574542        7.0363709117        0.5603738255
  H         3.8700636244        7.8123615739        0.5595961439
  C         4.6491426510       17.8501426316       11.3829724265
  H         3.8732953678       18.6254183986       11.3828631154
  C         6.7640617339        7.0306125909       11.3801874692
  H         7.5399948290        7.8058137764       11.3789530968
  C         6.7673745696       17.8503583862        0.5635060626
  H         7.5431508607       18.6256853551        0.5640702206
  C        17.5762717170        7.0353176391        0.5609398469
  H        18.3498164392        7.8128778663        0.5617738770
  C        17.5889891064       17.8444882649       11.3805004856
  H        18.3641149204       18.6204803762       11.3795853910
 Xe        15.8706749176       11.2311981226       11.2312093336
