     409
 i =     150, E =    -5183.7528449909
  N         2.8772782461        5.2006323304       16.0061194301
  C         1.5593707988        5.4706578188       16.2727907302
  N        13.7034954653        5.1578469819        5.1578482215
  C        12.3820810525        5.4194708202        5.4194716152
  N        19.5634316186       17.5506160216       15.9957997548
  C        20.8809260413       17.2852723670       16.2694163977
  N         8.7437259647       17.6187510209        5.1470407803
  C        10.0612553584       17.3430073399        5.4164927628
  N        19.5589070336        5.1994294145        6.7551947225
  C        20.8763053682        5.4715584135        6.4874655662
  N         8.7437320663        5.1470405804       17.6187537637
  C        10.0612603440        5.4164923878       17.3430110042
  N         2.8738499215       17.5609241908        6.7579132589
  C         1.5570529890       17.2879568577        6.4875083962
  N        13.7101797365       17.5856301292       17.5856290224
  C        12.3886951691       17.3246163706       17.3246151857
  N        15.8794758340        3.0280987755        5.1840388845
  C        16.1468033322        1.7116965700        5.4593982342
  N        15.8306438665       13.8535258500       16.0094580677
  C        16.1001750277       12.5344904537       16.2752653206
  N        15.8791795564       19.7170321763       17.5644759181
  C        16.1476986161       21.0335378572       17.2913122915
  N        15.8282112012        8.8921942024        6.7319273147
  C        16.0991284103       10.2114723426        6.4662167918
  N         6.5540650849       19.7266351267        5.1845037847
  C         6.2863163409       21.0422018192        5.4602209862
  N         6.6005998088        8.8992850435       16.0309808911
  C         6.3323790585       10.2198962341       16.2945830373
  N         6.5590796528        3.0368288167       17.5778997592
  C         6.2934584499        1.7208996598       17.3014909826
  N         6.6088297592       13.8625688688        6.7442538399
  C         6.3380069731       12.5427494121        6.4783341561
  N         5.0213503953       16.0048905400        3.0395210755
  C         5.2892377917       16.2740475460        1.7216073914
  N         5.0384946240        5.2029682412       13.8600860373
  C         5.3116547967        5.4725243156       12.5429039242
  N        17.4205609094       15.9952410069       19.7139478971
  C        17.1546413706       16.2664878749       21.0325982088
  N        17.3976452018        5.1900167578        8.8957270631
  C        17.1240715673        5.4591686123       10.2122899746
  N         5.0159239490        6.7578987819       19.7231102307
  C         5.2825128127        6.4881541547       21.0410510646
  N         5.0300000550       17.5706196144        8.9071308953
  C         5.3056844412       17.2998208095       10.2232941921
  N        17.4206281685        6.7539933753        3.0316266701
  C        17.1533327897        6.4846949235        1.7131135213
  N        17.4006353712       17.5511812928       13.8493462012
  C        17.1253202409       17.2821677223       12.5328076826
  N         5.0145278492        3.0385811457        6.7562846590
  C         5.2814124598        1.7203754370        6.4875846434
  N         5.0344856303       13.8611177122       17.5667200604
  C         5.3080050250       12.5441898906       17.2976483668
  N        17.4192548477       19.7129499723        6.7580416428
  C        17.1531531182       21.0316699289        6.4871242205
  N        17.3963694510        8.8965152008       17.5486029617
  C        17.1224608308       10.2130622435       17.2803026740
  N         5.0231144658       19.7242812712       16.0060185273
  C         5.2905266249       21.0422310741       16.2748284729
  N         5.0348861431        8.9052391572        5.1958853063
  C         5.3097728303       10.2213827658        5.4687424068
  N        17.4209080540        3.0323269366       15.9989884303
  C        17.1542166643        1.7138969590       16.2688326892
  N        17.4020650424       13.8489844190        5.1882733482
  C        17.1270755225       12.5323467684        5.4576958692
  N         2.8777745381       16.0093707007       17.5651313193
  C         1.5604875539       16.2762193224       17.2921827441
  N        13.6886945335       16.0262870322        6.7139599317
  C        12.3743231787       16.3076138652        6.4383939399
  N        19.5626941116       15.9958395504        5.1981129351
  C        20.8795709040       16.2674330923        5.4691425432
  N         8.7379455320       16.0589882915       16.0589876033
  C        10.0573173812       16.3237446238       16.3237439919
  N        19.5591168890        6.7557391191       17.5487466493
  C        20.8771510583        6.4863280011       17.2820045371
  N         8.7339803937        6.6903000183        6.6902985199
  C        10.0526812880        6.4234372471        6.4234366185
  N         2.8738302423        6.7592928212        5.2029394113
  C         1.5564157528        6.4894231599        5.4733413904
  N        13.6886972944        6.7139622745       16.0262879435
  C        12.3743277721        6.4383950897       16.3076167771
  N        15.8785520833        5.1882429606       19.7165678104
  C        16.1467270830        5.4618114248       21.0329260954
  N        15.8271809436       16.0066726539        8.8930658733
  C        16.0975609773       16.2732504100       10.2122604676
  N        15.8781749539       17.5674839569        3.0292782876
  C        16.1468148288       17.2933212456        1.7127089368
  N        15.8321055209        6.7301869517       13.8528399838
  C        16.1019911944        6.4647014458       12.5337981024
  N         6.5507304061        5.1812140635        3.0340871930
  C         6.2844560834        5.4589888529        1.7187871761
  N         6.6046367074       16.0259363920       13.8641084226
  C         6.3344164888       16.2919796754       12.5443398125
  N         6.5626490115       17.5776356919       19.7277661976
  C         6.2954440269       17.3016918711       21.0436616900
  N         6.6064782291        6.7350529130        8.8965541048
  C         6.3367309429        6.4737822455       10.2173885876
  N        19.5591221991       17.5487440205        6.7557392527
  C        20.8771568589       17.2820034634        6.4863281821
  N         8.7484052578       17.6135141813       17.6135133673
  C        10.0655599573       17.3396949495       17.3396941668
  N         2.8738297771        5.2029389354        6.7592946415
  C         1.5564159814        5.4733410493        6.4894236329
  N        13.7058097974        5.1613882083       17.5859174582
  C        12.3845061424        5.4246164830       17.3257459058
  N         2.8777744658       17.5651300712       16.0093721747
  C         1.5604874748       17.2921821149       16.2762201724
  N        13.7058058126       17.5859166133        5.1613854410
  C        12.3845020391       17.3257443608        5.4246139119
  N        19.5626887805        5.1981128506       15.9958422609
  C        20.8795651262        5.4691438530       16.2674357078
  N         8.7405377746        5.1353460781        5.1353485486
  C        10.0584388865        5.4074433999        5.4074449072
  N         6.5626500922       19.7277655293       17.5776319178
  C         6.2954408454       21.0436614201       17.3016919933
  N         6.6064664188        8.8965526838        6.7350633741
  C         6.3367328926       10.2173871185        6.4737772760
  N         6.5507286786        3.0340857615        5.1812129532
  C         6.2844551895        1.7187868860        5.4589890634
  N         6.6046366897       13.8641083387       16.0259403661
  C         6.3344142382       12.5443390433       16.2919803013
  N        15.8781728517        3.0292831452       17.5674823970
  C        16.1468125069        1.7127143710       17.2933183761
  N        15.8321083798       13.8528355047        6.7301858612
  C        16.1019904702       12.5337912260        6.4647010129
  N        15.8785523639       19.7165692100        5.1882460354
  C        16.1467262018       21.0329298789        5.4618139904
  N        15.8271800544        8.8930620578       16.0066738872
  C        16.0975592346       10.2122560358       16.2732531656
  N        17.4192505971        6.7580409706       19.7129472971
  C        17.1531505025        6.4871219896       21.0316675478
  N        17.3963718537       17.5486010211        8.8965180377
  C        17.1224649524       17.2803008615       10.2130661195
  N         5.0145277837        6.7562843264        3.0385822966
  C         5.2814122866        6.4875832366        1.7203764147
  N         5.0344838503       17.5667148224       13.8611180176
  C         5.3080065664       17.2976466474       12.5441903756
  N        17.4209106705       15.9989897873        3.0323215895
  C        17.1542207664       16.2688338584        1.7138894921
  N        17.4020632419        5.1882752298       13.8489903498
  C        17.1270745197        5.4576989452       12.5323526276
  N         5.0231134366       16.0060232970       19.7242820475
  C         5.2905295290       16.2748288317       21.0422318484
  N         5.0348966904        5.1958770512        8.9052408593
  C         5.3097696919        5.4687476242       10.2213841458
  N        17.4205593902       19.7139545510       15.9952400426
  C        17.1546391264       21.0326043813       16.2664850814
  N        17.3976434495        8.8957196649        5.1900143232
  C        17.1240683462       10.2122831903        5.4591670359
  N         5.0213504019        3.0395205411       16.0048900473
  C         5.2892350598        1.7216066056       16.2740490190
  N         5.0384838251       13.8600843796        5.2029781167
  C         5.3116574126       12.5429033311        5.4725199258
  N        17.4206280722        3.0316312928        6.7539953881
  C        17.1533334207        1.7131150496        6.4846977468
  N        17.4006320717       13.8493417131       17.5511813761
  C        17.1253174654       12.5328032069       17.2821707471
  N         5.0159249651       19.7231092469        6.7579002923
  C         5.2825136060       21.0410502640        6.4881555634
  N         5.0300015778        8.9071287824       17.5706240279
  C         5.3056823857       10.2232931656       17.2998226181
  N        19.5589072876        6.7551956186        5.1994294784
  C        20.8763047309        6.4874657034        5.4715591480
  N         8.7355443388        6.6987004472       16.0611415738
  C        10.0545464821        6.4305520077       16.3251752094
  N         2.8738454866        6.7579120967       17.5609258847
  C         1.5570481449        6.4875095103       17.2879592752
  N        13.6869617273        6.7135402033        6.7135419085
  C        12.3724514943        6.4353816238        6.4353819679
  N         2.8772832993       16.0061182734        5.2006322110
  C         1.5593755895       16.2727898250        5.4706575403
  N        13.6909324954       16.0291204602       16.0291203947
  C        12.3770073310       16.3086473300       16.3086465971
  N        19.5634312953       15.9957984210       17.5506153447
  C        20.8809253029       16.2694152305       17.2852727586
  N         8.7355392550       16.0611367609        6.6986999161
  C        10.0545417165       16.3251717680        6.4305509217
  N         6.5590789209       17.5779007768        3.0368302053
  C         6.2934607689       17.3014889940        1.7209014027
  N         6.6088423896        6.7442426545       13.8625708374
  C         6.3380043359        6.4783373012       12.5427516713
  N         6.5540652771        5.1845027884       19.7266361251
  C         6.2863167512        5.4602197658       21.0422029660
  N         6.6005987614       16.0309779566        8.8992864388
  C         6.3323822263       16.2945814827       10.2198983407
  N        15.8791812695       17.5644790061       19.7170254430
  C        16.1477023073       17.2913145931       21.0335314839
  N        15.8282138662        6.7319281966        8.8922003422
  C        16.0991297618        6.4662199117       10.2114785487
  N        15.8794776055        5.1840367028        3.0280958769
  C        16.1468031485        5.4593937593        1.7116923574
  N        15.8306453587       16.0094580452       13.8535312012
  C        16.1001782172       16.2752641851       12.5344944429
 Zn        14.5375789615       14.7270542578       14.7270535456
 Cl        13.2984499358       13.4989895953       13.4989860987
 Zn        14.5958840768        3.8794471025        3.8794461798
 Cl        13.3839397103        2.6358606026        2.6358627757
 Zn         3.7376427283       14.7129803602        3.9085236018
 Cl         2.5103785051       13.4642271876        2.6877841225
 Zn         3.7376424712        3.9085237943       14.7129792850
 Cl         2.5103747612        2.6877841228       13.4642291154
 Zn         7.8956779876        8.0025554541       14.7728043240
 Cl         9.2456575111        9.2112966084       13.6528449828
 Zn         7.8459666437       18.8923357634        3.8715725912
 Cl         9.0174175321       20.1554116867        2.6114014803
 Zn        18.7043086568        8.0488514694        3.9026284088
 Cl        19.9394442722        9.2885870552        2.6810746560
 Zn        18.7048557312       18.8380983013       14.7041255331
 Cl        19.9388077899       20.0616995027       13.4636330972
 Zn         7.8956757782       14.7728023210        8.0025569477
 Cl         9.2456605566       13.6528415321        9.2112912465
 Zn         7.8459662872        3.8715720213       18.8923342232
 Cl         9.0174155280        2.6114012442       20.1554109551
 Zn        18.7048541428       14.7041240082       18.8380957939
 Cl        19.9388051756       13.4636332357       20.0616994439
 Zn        18.7043088798        3.9026292361        8.0488523123
 Cl        19.9394446731        2.6810786969        9.2885914233
 Zn        14.5361293473        8.0114462271        8.0114478450
 Cl        13.2949282420        9.2393192000        9.2393131764
 Zn        14.5958194206       18.8708201483       18.8708173781
 Cl        13.3807135133       20.1120877469       20.1120855449
 Zn         3.7303987746        8.0532486666       18.8574417372
 Cl         2.4951944523        9.2878820606       20.0842609069
 Zn         3.7304001101       18.8574408821        8.0532491067
 Cl         2.4951957323       20.0842571456        9.2878850382
 Zn        14.5375240618       14.7240168165        8.0107045371
 Cl        13.2978898730       13.4935233703        9.2367090032
 Zn        14.5942996761        3.8842640920       18.8727533020
 Cl        13.3805806105        2.6420531736       20.1151889224
 Zn         3.7355040356       14.7150976915       18.8575284506
 Cl         2.5053233180       13.4747177401       20.0839462812
 Zn         3.7327176730        3.9062409797        8.0532830806
 Cl         2.5005833329        2.6845982708        9.2958871001
 Zn         7.8977886441        7.9884362941        7.9884360708
 Cl         9.2528015154        9.1505033691        9.1504852610
 Zn         7.8512701263       18.8888625163       18.8888614874
 Cl         9.0287413300       20.1478271996       20.1478282146
 Zn        18.7014898369        8.0524313300       18.8357819582
 Cl        19.9354761452        9.2926781460       20.0589385631
 Zn        18.7014968251       18.8357818231        8.0524337414
 Cl        19.9354789495       20.0589433349        9.2926803402
 Zn        14.5375265509        8.0107047576       14.7240197209
 Cl        13.2978902195        9.2367058863       13.4935267790
 Zn        14.5942979311       18.8727568542        3.8842616939
 Cl        13.3805792948       20.1151926522        2.6420491239
 Zn         3.7327160738        8.0532821781        3.9062416790
 Cl         2.5005832928        9.2958844262        2.6845953179
 Zn         3.7355032063       18.8575213474       14.7150971096
 Cl         2.5053221596       20.0839417620       13.4747201793
 Zn         7.8953676055       14.7654006704       14.7654031912
 Cl         9.2372050542       13.5951318484       13.5951337091
 Zn         7.8397152824        3.8595656519        3.8595659492
 Cl         9.0026627138        2.5949233412        2.5949261380
 Zn        18.7068710035       14.7071590864        3.9011207746
 Cl        19.9420477756       13.4681198818        2.6781765246
 Zn        18.7068668996        3.9011257101       14.7071614497
 Cl        19.9420422139        2.6781799920       13.4681235187
 Zn         5.8003365707        5.9596268228       16.8085624206
 Zn        16.6263120203       16.7789546009       16.7789543693
 Zn        16.6258972157        5.9589860491        5.9589869005
 Zn         5.8003318723       16.8085568702        5.9596298472
 Zn         5.7981759445        5.9551335711        5.9551355678
 Zn        16.6255401211       16.7784592815        5.9595703044
 Zn         5.8039049305       16.8063128068       16.8063062857
 Zn        16.6255373470        5.9595705432       16.7784599481
  N         3.6218466768        5.9794062163       16.7849803532
  N        14.4415389960        5.9400283714        5.9400302121
  N        18.8165457971       16.7709834957       16.7709841331
  N         7.9929726834       16.8420459173        5.9236161631
  N        18.8122417072        5.9761081489        5.9761075163
  N         7.9929735582        5.9236162652       16.8420500553
  N         3.6218462194       16.7849794203        5.9794068835
  N        14.4465818091       16.8025373004       16.8025368628
  N        16.6497235065        3.7763916983        5.9671665019
  N        16.6171309497       14.5976709000       16.7809903851
  N        16.6487364509       18.9686960551       16.7806784330
  N        16.6139182372        8.1474418171        5.9599052885
  N         5.7853128212       18.9789682542        5.9691372910
  N         5.8133420942        8.1564197027       16.8029760404
  N         5.7896669453        3.7844768300       16.7939049375
  N         5.8226811861       14.6081941326        5.9720343650
  N         5.7896655075       16.7939070915        3.7844772612
  N         5.8227002650        5.9720173878       14.6081940902
  N        16.6487370440       16.7806803631       18.9686941544
  N        16.6139204684        5.9599061624        8.1474422223
  N         5.7853118448        5.9691363667       18.9789680492
  N         5.8133389568       16.8029718212        8.1564209665
  N        16.6497256103        5.9671660549        3.7763926303
  N        16.6171331051       16.7809917327       14.5976704266
  N         5.7824614685        3.7825524605        5.9656704706
  N         5.8186075326       14.6094407597       16.7975926477
  N        16.6478387981       18.9679159629        5.9719792052
  N        16.6131614192        8.1481972018       16.7782558785
  N         5.7927805638       18.9799392359       16.7941363582
  N         5.8189302369        8.1540325786        5.9621650411
  N        16.6487717425        3.7773052950       16.7843344449
  N        16.6181807898       14.5971395778        5.9583067506
  N         3.6242299541       16.7886023941       16.7886038060
  N        14.4434468523       16.8006097371        5.9409808606
  N        18.8140842558       16.7710732098        5.9765602448
  N         7.9965115291       16.8375002294       16.8374994178
  N        18.8140829628        5.9765597920       16.7710761503
  N         7.9906201369        5.9125820067        5.9125820359
  N         3.6200247232        5.9809794106        5.9809807352
  N        14.4434464854        5.9409838959       16.8006096990
  N        16.6478355491        5.9719775372       18.9679170371
  N        16.6131622146       16.7782546040        8.1481964319
  N        16.6487729267       16.7843363784        3.7773035892
  N        16.6181769264        5.9583084666       14.5971395435
  N         5.7824623265        5.9656722817        3.7825519901
  N         5.8186047912       16.7975863679       14.6094400370
  N         5.7927775505       16.7941434954       18.9799383935
  N         5.8189488330        5.9621484134        8.1540322042
  C        11.2103853767       15.7661386587       15.7661379746
  H        11.1958962930       14.9906348462       14.9906342986
  C        11.2258438783        4.8631625271        4.8631643126
  H        11.2373243863        4.0877714758        4.0877743784
  C         0.4010021098       15.7197667267        4.9189480930
  H         0.4031749469       14.9443881998        4.1431986265
  C         0.4009975611        4.9189488591       15.7197686391
  H         0.4031674841        4.1431986531       14.9443912657
  C        11.2087605855        6.9835337371       15.7654857554
  H        11.1958331422        7.7590452155       14.9900263597
  C        11.2287637541       17.8859283101        4.8714243337
  H        11.2402475444       18.6631637810        4.0978804148
  C         0.3962506826        7.0394414063        4.9223464355
  H         0.3957900133        7.8154013187        4.1471594865
  C         0.4006514719       17.8395241079       15.7221335587
  H         0.4003871382       18.6146712430       14.9461207240
  C        11.2087591586       15.7654833946        6.9835314276
  H        11.1958319008       14.9900234705        7.7590433146
  C        11.2287694714        4.8714256431       17.8859308872
  H        11.2402576457        4.0978817734       18.6631667842
  C         0.4006522003       15.7221320443       17.8395248044
  H         0.4003902707       14.9461191308       18.6146713597
  C         0.3962492752        4.9223458817        7.0394404740
  H         0.3957891804        4.1471579473        7.8153997497
  C        11.2072432154        6.9793293517        6.9793285237
  H        11.1948003275        7.7548105931        7.7548093619
  C        11.2340679041       17.8824483624       17.8824471352
  H        11.2470059223       18.6578145675       18.6578129622
  C         0.3954013907        7.0382292140       17.8349666352
  H         0.3925637289        7.8147506769       18.6096093557
  C         0.3954056032       17.8349650549        7.0382290130
  H         0.3925731634       18.6096071448        7.8147510662
  C        15.5435457942       11.3743525675       15.7288225084
  H        14.7616580119       11.3763963414       14.9596964708
  C        15.6009033936        0.5517901916        4.9051007469
  H        14.8324795972        0.5508719001        4.1223036749
  C         4.7553927779       11.3834325202        4.9263660691
  H         3.9731665511       11.3857707888        4.1573203320
  C         4.7455978919        0.5614671948       15.7168054973
  H         3.9782561044        0.5604355822       14.9332609536
  C        15.5453926422       11.3735640968        7.0111265469
  H        14.7635026528       11.3755982969        7.7803507074
  C        15.6012810262        0.5524988380       17.8474957210
  H        14.8322648403        0.5513566602       18.6296269958
  C         4.7516940072       11.3847851652       17.8436230804
  H         3.9696968557       11.3866992571       18.6128106975
  C         4.7381034502        0.5606303687        7.0460644301
  H         3.9714647260        0.5601485707        7.8303146710
  C         6.8905919328       11.3810525774       15.7507748008
  H         7.6799458257       11.3780951367       14.9897330332
  C         6.8297669400        0.5605965974        4.9018051370
  H         7.5940414007        0.5608846242        4.1147382199
  C        17.6806976297       11.3713317060        4.9130659131
  H        18.4629154833       11.3694160973        4.1442205542
  C        17.7000935755        0.5538251358       15.7122956814
  H        18.4691121896        0.5550048114       14.9303480720
  C         6.8937345561       11.3786924563        7.0187917985
  H         7.6818540845       11.3751070867        7.7808281049
  C         6.8395611397        0.5627430093       17.8586041744
  H         7.6048547070        0.5636696281       18.6446471077
  C        17.6790397576       11.3718840870       17.8268639613
  H        18.4613229807       11.3699472157       18.5957512274
  C        17.6984001160        0.5528512391        7.0416570522
  H        18.4670323796        0.5537838676        7.8239077740
  C        15.5435488745       15.7288215452       11.3743562889
  H        14.7616599085       14.9596959540       11.3764021305
  C        15.6009049882        4.9050964274        0.5517908798
  H        14.8324819682        4.1222982705        0.5508709121
  C         4.7456013777       15.7168051503        0.5614668654
  H         3.9782576090       14.9332623736        0.5604342328
  C         4.7553874006        4.9263749507       11.3834332526
  H         3.9731645563        4.1573251212       11.3857692409
  C         6.8905952194       15.7507749438       11.3810526339
  H         7.6799486010       14.9897319028       11.3780965689
  C         6.8297676694        4.9018059705        0.5605971798
  H         7.5940442410        4.1147403283        0.5608844962
  C        17.7000955244       15.7122990968        0.5538204012
  H        18.4691144241       14.9303503683        0.5549976150
  C        17.6806988550        4.9130691624       11.3713381879
  H        18.4629175594        4.1442240328       11.3694286045
  C        15.5453929230        7.0111296123       11.3735667071
  H        14.7635036314        7.7803534404       11.3756029540
  C        15.6012837430       17.8474990774        0.5524930373
  H        14.8322677306       18.6296299499        0.5513459740
  C         4.7381021688        7.0460630037        0.5606304353
  H         3.9714633325        7.8303129348        0.5601479709
  C         4.7516952524       17.8436221514       11.3847861705
  H         3.9696967150       18.6128078961       11.3866984179
  C         6.8937299732        7.0187997248       11.3786925114
  H         7.6818526478        7.7808320753       11.3751072237
  C         6.8395653421       17.8586030503        0.5627443867
  H         7.6048572559       18.6446467476        0.5636722955
  C        17.6983990576        7.0416563870        0.5528462043
  H        18.4670299294        7.8239071604        0.5537752363
  C        17.6790439796       17.8268610461       11.3718864355
  H        18.4613270141       18.5957481604       11.3699533171
 Xe        10.9244559183       11.3692382803       11.3692420469
