     409
 i =     150, E =    -5183.7526246571
  N         2.9982413967        5.2069796791       16.0267167630
  C         1.6799683382        5.4767308916       16.2937389332
  N        13.8064163013        5.2015245592        5.2013226687
  C        12.4893389390        5.4730252831        5.4730900575
  N        19.6892185156       17.5745939098       16.0181930927
  C        21.0070605496       17.3059119083       16.2898200625
  N         8.8607778074       17.5812854170        5.2109848450
  C        10.1783977549       17.3086271344        5.4776800010
  N        19.6701796564        5.2011942152        6.7570427401
  C        20.9878427153        5.4747125709        6.4907189476
  N         8.8607520889        5.2112932624       17.5815934848
  C        10.1783928731        5.4775802052       17.3085755549
  N         2.9947982492       17.5814333301        6.7638101678
  C         1.6776748735       17.3092955747        6.4931637461
  N        13.8258540986       17.5764126594       17.5764645698
  C        12.5075623394       17.3077882496       17.3077918840
  N        15.9600861823        3.0445341920        5.1999891195
  C        16.2310312677        1.7270039169        5.4703257052
  N        15.9749038967       13.8660027148       16.0186721582
  C        16.2435243170       12.5482650354       16.2890479756
  N        15.9786330239       19.7288573636       17.5733113224
  C        16.2451984128       21.0467769259       17.3015364305
  N        15.9625836506        8.9104813629        6.7562186089
  C        16.2346877095       10.2277881030        6.4870188626
  N         6.7060832478       19.7399152477        5.2129785044
  C         6.4340337512       21.0573319688        5.4824554221
  N         6.7059291543        8.9169860705       16.0243514227
  C         6.4364633078       10.2346856616       16.2936068946
  N         6.7092204423        3.0571883731       17.5847535912
  C         6.4423643194        1.7389845313       17.3136670519
  N         6.7032399552       13.8725109584        6.7659971955
  C         6.4297257584       12.5552815483        6.4984085529
  N         5.1550954196       16.0271889854        3.0550520887
  C         5.4274050002       16.2966637596        1.7377038909
  N         5.1479891512        5.2099166261       13.8744020980
  C         5.4140675216        5.4821206839       12.5564593956
  N        17.5329280619       16.0162260492       19.7302990173
  C        17.2605504303       16.2849379835       21.0478194150
  N        17.5174790439        5.1993654706        8.9088687510
  C        17.2500501159        5.4703662757       10.2267086379
  N         5.1481925454        6.7671647681       19.7382082157
  C         5.4169054982        6.4973792335       21.0562303663
  N         5.1497192431       17.5806227343        8.9184721031
  C         5.4208189296       17.3100757135       10.2357793327
  N        17.5162243468        6.7559016289        3.0459314927
  C        17.2470989870        6.4862648207        1.7280836959
  N        17.5316270227       17.5738664740       13.8649302932
  C        17.2598809391       17.3046908463       12.5475458777
  N         5.1413831872        3.0549539068        6.7657623648
  C         5.4135024487        1.7373210258        6.4969418459
  N         5.1589195360       13.8742128894       17.5823157040
  C         5.4251558294       12.5562712843       17.3106830924
  N        17.5231346650       19.7300118287        6.7554333215
  C        17.2504882954       21.0473005108        6.4862661018
  N        17.5254192383        8.9093101753       17.5760446476
  C        17.2568506649       10.2270180380       17.3056312683
  N         5.1617241046       19.7388083215       16.0267566458
  C         5.4306649222       21.0567585644       16.2964052317
  N         5.1405544807        8.9185888637        5.2118809791
  C         5.4104409264       10.2359416510        5.4831618771
  N        17.5266405554        3.0466166613       16.0161357221
  C        17.2571696684        1.7286698066       16.2850338041
  N        17.5257502532       13.8644887721        5.2014908243
  C        17.2541942144       12.5472088462        5.4713416856
  N         3.0063870624       16.0271673909       17.5832034438
  C         1.6885260812       16.2940260540       17.3100668028
  N        13.8170209623       16.0173468199        6.7560912983
  C        12.4993147467       16.2887673313        6.4882467692
  N        19.6819463664       16.0189791620        5.2020646444
  C        20.9990895091       16.2899006326        5.4741599517
  N         8.8665292537       16.0251802770       16.0252288836
  C        10.1845865859       16.2942088036       16.2942098630
  N        19.6788564820        6.7574248566       17.5759554039
  C        20.9969230339        6.4898168228       17.3062837070
  N         8.8539834788        6.7641808554        6.7639774617
  C        10.1710779878        6.4926261948        6.4926747493
  N         2.9861386575        6.7657524873        5.2098380666
  C         1.6685315308        6.4949369718        5.4789432757
  N        13.8170118939        6.7563338656       16.0176398928
  C        12.4992997995        6.4881506765       16.2887204663
  N        15.9676097074        5.1990077747       19.7278916328
  C        16.2347307919        5.4699553381       21.0459934644
  N        15.9697773806       16.0198408739        8.9103371348
  C        16.2408837992       16.2896192760       10.2277562085
  N        15.9702527925       17.5718013033        3.0449759919
  C        16.2411643324       17.3010559000        1.7275967091
  N        15.9700192927        6.7577767991       13.8660393176
  C        16.2383509817        6.4874713443       12.5482912452
  N         6.6977536861        5.2105241446        3.0561995149
  C         6.4299114314        5.4813760578        1.7382685835
  N         6.7125029734       16.0248828642       13.8724986585
  C         6.4400538643       16.2936975624       12.5551548299
  N         6.7163013644       17.5839937414       19.7403644362
  C         6.4457870512       17.3133461793       21.0579002855
  N         6.6973836101        6.7671802292        8.9174354670
  C         6.4267001641        6.4989424612       10.2350385044
  N        19.6788690502       17.5760312301        6.7573914674
  C        20.9969459185       17.3062938789        6.4898691546
  N         8.8692593727       17.5815410220       17.5815931009
  C        10.1865163647       17.3102821765       17.3102872039
  N         2.9861503694        5.2098442099        6.7657476924
  C         1.6685372813        5.4789282027        6.4949483256
  N        13.8164891554        5.2002036322       17.5732152625
  C        12.4989350462        5.4723270783       17.3048662383
  N         3.0063859058       17.5831809818       16.0271861192
  C         1.6885239732       17.3100465856       16.2940417563
  N        13.8164949506       17.5729208240        5.1999500742
  C        12.4989500487       17.3049106280        5.4724211002
  N        19.6819250824        5.2020994715       16.0189176831
  C        20.9990680452        5.4741023986       16.2898932998
  N         8.8504417832        5.2085708616        5.2083717100
  C        10.1686817572        5.4766759300        5.4767302474
  N         6.7162492540       19.7403479343       17.5840424646
  C         6.4457799400       21.0578827325       17.3133369726
  N         6.6974905039        8.9174427222        6.7670850262
  C         6.4266991626       10.2350403610        6.4989746662
  N         6.6976225266        3.0562310701        5.2103833857
  C         6.4299385905        1.7382956529        5.4814152899
  N         6.7125759625       13.8724685061       16.0249768480
  C         6.4400340194       12.5551293686       16.2936957544
  N        15.9703018594        3.0449824363       17.5718742390
  C        16.2411403017        1.7275868931       17.3010551038
  N        15.9698295309       13.8659951239        6.7576295023
  C        16.2383811077       12.5482622544        6.4875398347
  N        15.9677072628       19.7278764052        5.1989352858
  C        16.2347307921       21.0459771098        5.4700133855
  N        15.9697569961        8.9103183324       16.0198698778
  C        16.2408804990       10.2277257729       16.2896105868
  N        17.5230162477        6.7555169244       19.7300353774
  C        17.2504833972        6.4862187853       21.0473088091
  N        17.5254502918       17.5760125134        8.9093283062
  C        17.2568579074       17.3056363603       10.2270551268
  N         5.1415173748        6.7659067211        3.0549116184
  C         5.4134814807        6.4969060443        1.7372889640
  N         5.1588480886       17.5822210621       13.8742457946
  C         5.4251755182       17.3106827599       12.5562987965
  N        17.5265977383       16.0160569316        3.0466093695
  C        17.2571933666       16.2850372598        1.7286784685
  N        17.5259271709        5.2016625622       13.8645395701
  C        17.2541640576        5.4712741462       12.5472395789
  N         5.1617671329       16.0267203634       19.7388322863
  C         5.4306619195       16.2964186666       21.0567827477
  N         5.1404614077        5.2119676608        8.9185696341
  C         5.4104500186        5.4831231706       10.2359326037
  N        17.5329746670       19.7302681870       16.0163038817
  C        17.2605221244       21.0477899137       16.2849402301
  N        17.5173002551        8.9088718351        5.1991991928
  C        17.2500813951       10.2266943725        5.4704315397
  N         5.1550269642        3.0550669723       16.0272293615
  C         5.4273898708        1.7377000264       16.2966505431
  N         5.1481072679       13.8743737663        5.2098361461
  C         5.4140737430       12.5564448748        5.4821587534
  N        17.5163296227        3.0459577251        6.7558127838
  C        17.2470912796        1.7280952648        6.4863064380
  N        17.5316075196       13.8648650321       17.5739155488
  C        17.2598871821       12.5474871268       17.3046967859
  N         5.1480154328       19.7382162094        6.7670170312
  C         5.4169296426       21.0562343031        6.4974326617
  N         5.1498223228        8.9184703403       17.5807353705
  C         5.4207978500       10.2357745941       17.3100661224
  N        19.6701817501        6.7570439371        5.2012198285
  C        20.9878397625        6.4907019929        5.4747446015
  N         8.8611993308        6.7646369656       16.0231260987
  C        10.1787036005        6.4923185589       16.2913088545
  N         2.9947708897        6.7638552384       17.5813686822
  C         1.6776552981        6.4931273101       17.3092903215
  N        13.8096315039        6.7577530496        6.7575579662
  C        12.4916116789        6.4890770271        6.4891409223
  N         2.9982458008       16.0267729763        5.2069320216
  C         1.6799846582       16.2937423533        5.4767699069
  N        13.8226813388       16.0204811142       16.0205330282
  C        12.5055045552       16.2917907429       16.2917921455
  N        19.6892252480       16.0181718678       17.5746245958
  C        21.0070639089       16.2898030977       17.3059358405
  N         8.8612207098       16.0227876814        6.7643602796
  C        10.1787075121       16.2913608512        6.4924171807
  N         6.7092845766       17.5847256541        3.0571769819
  C         6.4423780306       17.3136803271        1.7389804492
  N         6.7031236523        6.7660646606       13.8725360498
  C         6.4297192195        6.4983696275       12.5553032434
  N         6.7062222033        5.2131350516       19.7399003782
  C         6.4340037987        5.4823885004       21.0573296786
  N         6.7058508954       16.0242325698        8.9169938015
  C         6.4364886173       16.2936228916       10.2346905534
  N        15.9785785835       17.5732289191       19.7288817477
  C        16.2452180891       17.3015359871       21.0468034940
  N        15.9627736190        6.7563865231        8.9104901009
  C        16.2346627920        6.4869561825       10.2278059120
  N        15.9599750395        5.2000818683        3.0445223906
  C        16.2310369708        5.4702833683        1.7270012405
  N        15.9749316217       16.0186249635       13.8660501072
  C        16.2435226187       16.2890458644       12.5483142780
 Zn        14.6799989173       14.7259180700       14.7259408311
 Cl        13.4475028474       13.4938916878       13.4938880174
 Zn        14.6667431331        3.9064328903        3.9064234751
 Cl        13.4308256940        2.6761217990        2.6761382029
 Zn         3.8589792169       14.7348105443        3.9124730619
 Cl         2.6269016326       13.5020741016        2.6804865217
 Zn         3.8589165222        3.9124706600       14.7348097193
 Cl         2.6268769043        2.6804590993       13.5020558216
 Zn         7.9994427444        8.0568441058       14.7292260637
 Cl         9.2296161264        9.2903238011       13.4962350447
 Zn         8.0005538813       18.8777588329        3.9221816439
 Cl         9.2343276391       20.1095137328        2.6903341855
 Zn        18.8109632408        8.0491386688        3.9055302473
 Cl        20.0428682277        9.2816823307        2.6733574261
 Zn        18.8252742550       18.8681086065       14.7239668417
 Cl        20.0573501495       20.0976818285       13.4887305745
 Zn         7.9994689206       14.7291708575        8.0568429257
 Cl         9.2296529420       13.4962213822        9.2903657091
 Zn         8.0005432125        3.9222100173       18.8777748629
 Cl         9.2343007432        2.6903090567       20.1094805644
 Zn        18.8252731979       14.7239353175       18.8681240629
 Cl        20.0573740498       13.4887198211       20.0976857648
 Zn        18.8110187812        3.9055205917        8.0491645674
 Cl        20.0428827949        2.6733172862        9.2817307012
 Zn        14.6700775270        8.0515455858        8.0515381969
 Cl        13.4385051773        9.2840529858        9.2840731936
 Zn        14.6900949422       18.8697044886       18.8697249735
 Cl        13.4569708778       20.1017821419       20.1017750137
 Zn         3.8538919153        8.0577880722       18.8740425834
 Cl         2.6234847320        9.2937129941       20.1044481894
 Zn         3.8538801859       18.8740556109        8.0578010297
 Cl         2.6234752484       20.1044621163        9.2937391828
 Zn        14.6758535713       14.7253126368        8.0516116302
 Cl        13.4440477923       13.4932308238        9.2843317186
 Zn        14.6755322496        3.9045716671       18.8659244194
 Cl        13.4419691298        2.6720707468       20.0964228879
 Zn         3.8697309564       14.7343005224       18.8765974245
 Cl         2.6370205639       13.5015780961       20.1086280346
 Zn         3.8478915028        3.9168151168        8.0578909760
 Cl         2.6169279545        2.6862106050        9.2932794339
 Zn         7.9947475402        8.0569961132        8.0569831684
 Cl         9.2246208400        9.2904226954        9.2904297614
 Zn         8.0078762340       18.8760455478       18.8760542355
 Cl         9.2449807275       20.1060919578       20.1060882254
 Zn        18.8174841637        8.0493693509       18.8712569759
 Cl        20.0492625381        9.2819320056       20.1035135194
 Zn        18.8175179480       18.8712801852        8.0494204907
 Cl        20.0492919467       20.1035553058        9.2819843545
 Zn        14.6758780475        8.0516061426       14.7253607025
 Cl        13.4440726105        9.2842708391       13.4932407894
 Zn        14.6755272519       18.8658713046        3.9045614367
 Cl        13.4419744422       20.0964343181        2.6721053230
 Zn         3.8479173100        8.0578940843        3.9168146805
 Cl         2.6169364265        9.2932672028        2.6862194923
 Zn         3.8696934982       18.8765755130       14.7343169353
 Cl         2.6370254355       20.1086344155       13.5015781800
 Zn         8.0047076108       14.7307549632       14.7307910992
 Cl         9.2365732715       13.4983034676       13.4983090636
 Zn         7.9901879042        3.9159776958        3.9159197535
 Cl         9.2218106166        2.6832345242        2.6832627817
 Zn        18.8208549005       14.7241022750        3.9083750995
 Cl        20.0529792280       13.4899233054        2.6780674155
 Zn        18.8208684222        3.9083524622       14.7241119543
 Cl        20.0529699017        2.6780388356       13.4899183135
 Zn         5.9321043976        5.9923151538       16.8098401093
 Zn        16.7609242071       16.7946920597       16.7948587551
 Zn        16.7342203249        5.9766612618        5.9765266349
 Zn         5.9320509202       16.8097328325        5.9922203911
 Zn         5.9152653391        5.9921282322        5.9920317584
 Zn        16.7517750298       16.7949722113        5.9774608716
 Zn         5.9421226535       16.8102309788       16.8102977597
 Zn        16.7517310242        5.9775732146       16.7950428091
  N         3.7432058993        5.9856644856       16.8053290135
  N        14.5542439245        5.9788616595        5.9787505968
  N        18.9430020317       16.7956276658       16.7956587683
  N         8.1145030740       16.8036749857        5.9894690417
  N        18.9234422586        5.9773521398        5.9773787642
  N         8.1145284243        5.9897002304       16.8039454811
  N         3.7432193372       16.8053667356        5.9856320119
  N        14.5709421397       16.7977550414       16.7978018069
  N        16.7377741106        3.7917233513        5.9777484568
  N        16.7542702300       14.6118540556       16.7958540837
  N        16.7574950296       18.9828465749       16.7958958901
  N        16.7389173984        8.1630509517        5.9774023510
  N         5.9281717441       18.9926329455        5.9904137221
  N         5.9277125513        8.1715230473       16.8030532492
  N         5.9306578031        3.8027888855       16.8065549996
  N         5.9276441242       14.6202325301        5.9867792438
  N         5.9306886083       16.8065264064        3.8027797615
  N         5.9275713350        5.9868307013       14.6202572537
  N        16.7574345282       16.7958004790       18.9828859984
  N        16.7391050514        5.9775637778        8.1630553790
  N         5.9282583900        5.9904691150       18.9926597894
  N         5.9276824162       16.8030111051        8.1715013589
  N        16.7377028469        5.9777883451        3.7917026316
  N        16.7542910882       16.7958085813       14.6119174216
  N         5.9185146447        3.8022902367        5.9876332672
  N         5.9375019452       14.6201614693       16.8046338925
  N        16.7469117688       18.9823126386        5.9766785169
  N        16.7471219615        8.1632215038       16.7979846769
  N         5.9393574060       18.9931491755       16.8057322280
  N         5.9191470468        8.1717422841        5.9888616872
  N        16.7483807647        3.7923152521       16.7946563530
  N        16.7488623255       14.6117414774        5.9799828090
  N         3.7529573217       16.8069111687       16.8069312029
  N        14.5634356695       16.7945190320        5.9771589448
  N        18.9340114413       16.7972105918        5.9787561568
  N         8.1217289233       16.8040260711       16.8040518163
  N        18.9339929952        5.9787300766       16.7971637133
  N         8.1054000375        5.9871180576        5.9869563762
  N         3.7325759926        5.9885207594        5.9885188721
  N        14.5634120389        5.9773979167       16.7947973372
  N        16.7468237874        5.9767030083       18.9823340790
  N        16.7471534484       16.7979773548        8.1632350381
  N        16.7483751948       16.7946312516        3.7923138781
  N        16.7489956551        5.9800858260       14.6117641031
  N         5.9186473565        5.9877693617        3.8022504658
  N         5.9374184274       16.8045303420       14.6201926200
  N         5.9393945099       16.8056934171       18.9931763449
  N         5.9190722561        5.9889257833        8.1717260492
  C        11.3439416710       15.7426426678       15.7426382686
  H        11.3420889365       14.9670713976       14.9670733295
  C        11.3273252566        4.9244203031        4.9244771033
  H        11.3247537230        4.1489249147        4.1488591898
  C         0.5210578278       15.7411083347        4.9254280883
  H         0.5235054492       14.9653841861        4.1500483444
  C         0.5210468532        4.9253830290       15.7410946077
  H         0.5234856743        4.1500410955       14.9653286780
  C        11.3393752374        7.0401705712       15.7390485962
  H        11.3399577406        7.8153074924       14.9630678578
  C        11.3383546601       17.8574172954        4.9247874759
  H        11.3377038926       18.6332514804        4.1494906135
  C         0.5081770396        7.0436943619        4.9268758004
  H         0.5083016294        7.8194227428        4.1514913838
  C         0.5278436629       17.8579069487       15.7414110389
  H         0.5279484995       18.6333411879       14.9657429545
  C        11.3393889761       15.7390851972        7.0402546427
  H        11.3399902363       14.9628936577        7.8151812425
  C        11.3383416746        4.9246997485       17.8573844210
  H        11.3376807185        4.1496111177       18.6334285506
  C         0.5278478826       15.7414009563       17.8579317240
  H         0.5279581613       14.9657381694       18.6333688914
  C         0.5081866219        4.9268425029        7.0437060831
  H         0.5083245945        4.1514506950        7.8194318239
  C        11.3329449076        7.0413163168        7.0413595226
  H        11.3356904805        7.8169484401        7.8168533492
  C        11.3482241352       17.8593548842       17.8593610561
  H        11.3499076347       18.6348927536       18.6349145501
  C         0.5158822762        7.0422141619       17.8578397070
  H         0.5136006197        7.8179736226       18.6332008302
  C         0.5159102805       17.8578606694        7.0422547765
  H         0.5136509345       18.6332686931        7.8179726636
  C        15.6916199361       11.3884771457       15.7389694404
  H        14.9159952792       11.3893009878       14.9634640107
  C        15.6822621464        0.5657168069        4.9200836456
  H        14.9065730208        0.5645211238        4.1446715441
  C         4.8614221038       11.3968252584        4.9325491199
  H         4.0863259248       11.3976863145        4.1565465670
  C         4.8794535263        0.5765429253       15.7453649058
  H         4.1046296891        0.5753618876       14.9690472429
  C        15.6862346797       11.3887396673        7.0379339824
  H        14.9106672548       11.3899568008        7.8134971344
  C        15.6924795864        0.5663506050       17.8514027101
  H        14.9169493510        0.5649776177       18.6270096341
  C         4.8726662303       11.3969151160       17.8610150396
  H         4.0978818036       11.3983099106       18.6373487017
  C         4.8646425559        0.5761443151        7.0472939760
  H         4.0887651365        0.5751025560        7.8225195984
  C         6.9880351040       11.3941440140       15.7424472953
  H         7.7632181649       11.3927870967       14.9664885010
  C         6.9828410074        0.5785438578        4.9320818856
  H         7.7589712168        0.5796857936        4.1570915840
  C        17.8023715004       11.3862067903        4.9202034201
  H        18.5774006748       11.3851097017        4.1441205277
  C        17.8086393885        0.5689966263       15.7340137668
  H        18.5838354446        0.5702569601       14.9581087386
  C         6.9781316749       11.3946137055        7.0498514901
  H         7.7539944038       11.3936495477        7.8251300288
  C         6.9942233630        0.5791723740       17.8640297769
  H         7.7693142751        0.5802871736       18.6400234879
  C        17.8089358710       11.3867692786       17.8555279817
  H        18.5847534432       11.3861011848       18.6308352384
  C        17.7987895128        0.5684747525        7.0370309279
  H        18.5741084545        0.5697446180        7.8128433309
  C        15.6916257283       15.7389805620       11.3885117545
  H        14.9160144305       14.9634642519       11.3893463863
  C        15.6822517893        4.9200338446        0.5657279793
  H        14.9064962987        4.1446856693        0.5645692084
  C         4.8794533531       15.7453780673        0.5765574223
  H         4.1046462725       14.9690443747        0.5754187313
  C         4.8614261752        4.9325144014       11.3968263431
  H         4.0862745830        4.1565652048       11.3976728027
  C         6.9880495586       15.7424599153       11.3941599762
  H         7.7631846508       14.9664547445       11.3928120161
  C         6.9828241573        4.9320232475        0.5785319738
  H         7.7590447453        4.1571193013        0.5796911248
  C        17.8086675204       15.7340095827        0.5690152018
  H        18.5838250162       14.9580674509        0.5703000051
  C        17.8023449835        4.9201455537       11.3862328523
  H        18.5775047057        4.1441901107       11.3851557498
  C        15.6862245130        7.0378745075       11.3887677567
  H        14.9107943125        7.8135731663       11.3900052899
  C        15.6924924422       17.8514035944        0.5663643677
  H        14.9169216517       18.6269713301        0.5650055477
  C         4.8646301203        7.0472652613        0.5761184869
  H         4.0888561879        7.8225907071        0.5750581293
  C         4.8726842558       17.8610089752       11.3969376413
  H         4.0978474062       18.6372919376       11.3983722849
  C         6.9781126054        7.0498163926       11.3946243473
  H         7.7539085963        7.8251589896       11.3936726360
  C         6.9942446993       17.8640420514        0.5791775810
  H         7.7693637804       18.6400091337        0.5802950238
  C        17.7987828812        7.0369994167        0.5684678819
  H        18.5740327900        7.8128779002        0.5697120930
  C        17.8089349522       17.8555225601       11.3868236814
  H        18.5847685000       18.6308166181       11.3862103593
 Xe         3.1026146415       10.5586390276       10.5586417266
