     409
 i =     150, E =    -5183.7540636075
  N         2.7199748774        5.2057034246       16.0235182234
  C         1.4022473067        5.4763373597       16.2928355903
  N        13.5403548977        5.2076804832        5.2076334564
  C        12.2226326156        5.4773854909        5.4773967761
  N        19.4049112569       17.5793242131       16.0233355276
  C        20.7226040115       17.3079378774       16.2919320468
  N         8.5843584438       17.5798462910        5.2072048675
  C         9.9019465561       17.3083060945        5.4757041205
  N        19.4036379927        5.2047508893        6.7606448152
  C        20.7212449212        5.4755055778        6.4915038150
  N         8.5843532380        5.2072153301       17.5798662897
  C         9.9019408097        5.4757089191       17.3083262212
  N         2.7197451242       17.5794489117        6.7617980174
  C         1.4021932207       17.3088299829        6.4923717105
  N        13.5411220731       17.5792164649       17.5792116460
  C        12.2235458368       17.3093092323       17.3093135292
  N        15.6918119494        3.0520313429        5.2068498373
  C        15.9613150870        1.7341153737        5.4766268948
  N        15.6954714439       13.8707623449       16.0225528089
  C        15.9662137164       12.5531207140       16.2914935083
  N        15.6937662499       19.7349652544       17.5786706713
  C        15.9624454761       21.0525986782       17.3070444762
  N        15.6986278225        8.9155372415        6.7657512405
  C        15.9710959287       10.2328317600        6.4982232986
  N         6.4309543061       19.7354981010        5.2077246722
  C         6.1609982703       21.0532695598        5.4775725320
  N         6.4301027087        8.9156664881       16.0236394603
  C         6.1599724477       10.2332760365       16.2934785260
  N         6.4322264316        3.0524941297       17.5807136929
  C         6.1635868078        1.7346948768       17.3096161377
  N         6.4300607113       13.8712832381        6.7613332804
  C         6.1604303988       12.5537420605        6.4909848360
  N         4.8761474818       16.0249825657        3.0523049503
  C         5.1474994456       16.2937222726        1.7346088282
  N         4.8744865663        5.2052915773       13.8715878441
  C         5.1446252509        5.4748314850       12.5538728267
  N        17.2494055996       16.0219446783       19.7347465675
  C        16.9781112100       16.2906222338       21.0525037820
  N        17.2538777472        5.2089225162        8.9152382386
  C        16.9863601200        5.4814676498       10.2327815418
  N         4.8737086316        6.7627582993       19.7359321085
  C         5.1442192131        6.4928748016       21.0534924187
  N         4.8740360529       17.5799407982        8.9159509669
  C         5.1440261563       17.3096110347       10.2334440923
  N        17.2474132366        6.7629833326        3.0514211096
  C        16.9771473475        6.4927572690        1.7337687182
  N        17.2512278042       17.5784316041       13.8706018398
  C        16.9820700387       17.3076047953       12.5530168954
  N         4.8738024514        3.0520308378        6.7616393749
  C         5.1442977084        1.7343458126        6.4923105914
  N         4.8754417209       13.8717151754       17.5805512655
  C         5.1446275827       12.5540540168       17.3099747324
  N        17.2477535755       19.7350680735        6.7612370946
  C        16.9772505900       21.0527646728        6.4917727525
  N        17.2501000808        8.9149467309       17.5795177724
  C        16.9814977050       10.2324947336       17.3081230718
  N         4.8765435742       19.7358912105       16.0243202711
  C         5.1476701872       21.0536007845       16.2933619155
  N         4.8742781584        8.9155976357        5.2052518862
  C         5.1445516094       10.2331845011        5.4749606125
  N        17.2483650787        3.0515089527       16.0209881592
  C        16.9776884719        1.7336576173       16.2900869223
  N        17.2533200713       13.8709351013        5.2093410904
  C        16.9860194263       12.5532489708        5.4816025209
  N         2.7211939600       16.0240813961       17.5800561583
  C         1.4035029168       16.2922644110       17.3082770822
  N        13.5401563804       16.0208863396        6.7604899093
  C        12.2225495921       16.2906162380        6.4902071537
  N        19.4035639406       16.0246880989        5.2054452307
  C        20.7213262064       16.2935070351        5.4762502381
  N         8.5848264308       16.0240607076       16.0240625634
  C         9.9025970824       16.2937246737       16.2937264921
  N        19.4039279112        6.7613934728       17.5805066599
  C        20.7215199115        6.4922551911       17.3094861146
  N         8.5839752783        6.7622963941        6.7622065791
  C         9.9016139678        6.4925676556        6.4925938202
  N         2.7195204598        6.7625890450        5.2066257211
  C         1.4018995951        6.4924799529        5.4764767318
  N        13.5401522271        6.7604782761       16.0208845323
  C        12.2225443737        6.4902217686       16.2906409514
  N        15.6917631293        5.2049027030       19.7352329044
  C        15.9613021298        5.4756235527       21.0529626047
  N        15.6938430713       16.0235566337        8.9150950922
  C        15.9655400737       16.2920119014       10.2325702194
  N        15.6931705271       17.5776391463        3.0512568371
  C        15.9621373257       17.3065293520        1.7335514308
  N        15.6986459520        6.7661027073       13.8705037621
  C        15.9709246526        6.4984467287       12.5530306381
  N         6.4307400734        5.2068319372        3.0521537331
  C         6.1609713118        5.4770038250        1.7343410911
  N         6.4310085285       16.0244888417       13.8716673383
  C         6.1604562663       16.2938492960       12.5540128199
  N         6.4329790191       17.5802815606       19.7360210420
  C         6.1638420041       17.3092994915       21.0536804911
  N         6.4301661162        6.7616109537        8.9157660046
  C         6.1604537078        6.4911123045       10.2332511769
  N        19.4039293879       17.5805063929        6.7613950310
  C        20.7215227436       17.3094947798        6.4922471998
  N         8.5856197561       17.5800076085       17.5800087975
  C         9.9030469859       17.3097218826       17.3097237312
  N         2.7195230948        5.2066258290        6.7625839149
  C         1.4019063984        5.4764669922        6.4924867011
  N        13.5401396107        5.2054520258       17.5780160874
  C        12.2225571779        5.4748559962       17.3073291198
  N         2.7211929641       17.5800540005       16.0240856972
  C         1.4035030263       17.3082745908       16.2922681320
  N        13.5401433267       17.5780181732        5.2054616901
  C        12.2225619759       17.3073035583        5.4748407044
  N        19.4035661220        5.2054423709       16.0246858113
  C        20.7213250109        5.4762585353       16.2934981522
  N         8.5842356607        5.2064765372        5.2063850422
  C         9.9018711108        5.4765919666        5.4766173683
  N         6.4329763267       19.7360189751       17.5802850608
  C         6.1638425045       21.0536781506       17.3092973766
  N         6.4302242575        8.9157754126        6.7615697307
  C         6.1604458208       10.2332387571        6.4911289890
  N         6.4306925356        3.0521656531        5.2067891297
  C         6.1609785341        1.7343357095        5.4770129499
  N         6.4310111169       13.8716595552       16.0244910360
  C         6.1604569893       12.5540058590       16.2938508185
  N        15.6931703318        3.0512534460       17.5776369796
  C        15.9621377143        1.7335515890       17.3065261617
  N        15.6986465634       13.8705006559        6.7661031437
  C        15.9709153682       12.5530253392        6.4984389143
  N        15.6917561599       19.7352260329        5.2049142304
  C        15.9613188886       21.0529550031        5.4756147919
  N        15.6938487116        8.9150944104       16.0235502966
  C        15.9655294706       10.2325712449       16.2920188159
  N        17.2477574903        6.7612251796       19.7350741370
  C        16.9772334926        6.4917828053       21.0527725863
  N        17.2500966309       17.5795272148        8.9149482932
  C        16.9815080433       17.3081165491       10.2324935233
  N         4.8738356696        6.7616938733        3.0520175064
  C         5.1442906634        6.4923000811        1.7343448750
  N         4.8754388531       17.5805498529       13.8717203893
  C         5.1446269938       17.3099732957       12.5540601406
  N        17.2483607923       16.0209933772        3.0515133035
  C        16.9776874202       16.2900901451        1.7336582014
  N        17.2533241726        5.2093399195       13.8709366278
  C        16.9860294874        5.4816113766       12.5532534176
  N         4.8765478003       16.0243159935       19.7358937794
  C         5.1476695181       16.2933632942       21.0536038886
  N         4.8742386410        5.2053120700        8.9155847113
  C         5.1445586948        5.4749437965       10.2331898790
  N        17.2494054293       19.7347438878       16.0219393817
  C        16.9781129059       21.0525008344       16.2906192654
  N        17.2538654772        8.9152382970        5.2089129375
  C        16.9863492954       10.2327796178        5.4814626789
  N         4.8761379842        3.0523055198       16.0249898547
  C         5.1474992465        1.7346057518       16.2937224760
  N         4.8745183696       13.8715789726        5.2052670421
  C         5.1446210560       12.5538603351        5.4748381796
  N        17.2474250348        3.0514167253        6.7629777428
  C        16.9771588462        1.7337624582        6.4927557753
  N        17.2512265521       13.8706023805       17.5784288949
  C        16.9820640463       12.5530169186       17.3076077726
  N         4.8736881879       19.7359279294        6.7627408278
  C         5.1442229466       21.0534855311        6.4928791062
  N         4.8740353935        8.9159480140       17.5799459822
  C         5.1440269237       10.2334393913       17.3096176657
  N        19.4036367017        6.7606422929        5.2047555702
  C        20.7212446238        6.4915004976        5.4755105039
  N         8.5842136078        6.7621238003       16.0230803029
  C         9.9018570553        6.4910656735       16.2917163107
  N         2.7197443296        6.7618024011       17.5794432200
  C         1.4021914782        6.4923750750       17.3088269670
  N        13.5397499891        6.7636794451        6.7636333959
  C        12.2222382212        6.4933956440        6.4934076123
  N         2.7199751776       16.0235234386        5.2056971756
  C         1.4022490421       16.2928390043        5.4763337218
  N        13.5409999088       16.0232034984       16.0231958963
  C        12.2233803852       16.2932960069       16.2932988869
  N        19.4049101432       16.0233336178       17.5793260092
  C        20.7226040048       16.2919279955       17.3079415391
  N         8.5842191465       16.0230602755        6.7621148364
  C         9.9018604555       16.2916968070        6.4910618292
  N         6.4322407798       17.5807058348        3.0524934507
  C         6.1635883733       17.3096147452        1.7346957416
  N         6.4300326703        6.7613574264       13.8712940204
  C         6.1604329096        6.4909740474       12.5537555826
  N         6.4309718458        5.2077451802       19.7355031745
  C         6.1609961221        5.4775670201       21.0532765841
  N         6.4301032495       16.0236335182        8.9156716010
  C         6.1599722075       16.2934712806       10.2332805839
  N        15.6937663689       17.5786762438       19.7349686220
  C        15.9624441516       17.3070471715       21.0526010496
  N        15.6986410704        6.7657586125        8.9155366416
  C        15.9711058749        6.4982285463       10.2328344393
  N        15.6918019559        5.2068489258        3.0520354397
  C        15.9613056626        5.4766265284        1.7341225739
  N        15.6954721495       16.0225571022       13.8707624234
  C        15.9662194975       16.2914909203       12.5531203307
 Zn        14.4007495227       14.7290149984       14.7290083105
 Cl        13.1701004295       13.4960487077       13.4960412790
 Zn        14.3991225312        3.9132283179        3.9132372834
 Cl        13.1636316364        2.6825195597        2.6825286933
 Zn         3.5812446020       14.7311644949        3.9107860042
 Cl         2.3515907331       13.4981376712        2.6768553669
 Zn         3.5812358260        3.9107841956       14.7311640511
 Cl         2.3515820224        2.6768555709       13.4981339323
 Zn         7.7242106413        8.0550097866       14.7292601477
 Cl         8.9554219665        9.2876065771       13.4964025133
 Zn         7.7251428509       18.8742067692        3.9141838031
 Cl         8.9588181922       20.1079848663        2.6848632213
 Zn        18.5437659399        8.0542236560        3.9110796063
 Cl        19.7751997851        9.2876800071        2.6793340350
 Zn        18.5446113847       18.8730152747       14.7293828897
 Cl        19.7759028280       20.1044027638       13.4954001449
 Zn         7.7242142194       14.7292522854        8.0550105811
 Cl         8.9554310641       13.4964042589        9.2876110677
 Zn         7.7251361884        3.9141800275       18.8742127482
 Cl         8.9588145461        2.6848596730       20.1079870625
 Zn        18.5446068694       14.7293862562       18.8730152392
 Cl        19.7759011374       13.4954042574       20.1043992800
 Zn        18.5437715943        3.9110721077        8.0542282220
 Cl        19.7752031884        2.6793280769        9.2876893891
 Zn        14.4017766326        8.0564366898        8.0564373002
 Cl        13.1764049366        9.2920743112        9.2920764522
 Zn        14.4009276045       18.8731382745       18.8731352466
 Cl        13.1671429281       20.1045931862       20.1045852863
 Zn         3.5797008403        8.0550168413       18.8734962434
 Cl         2.3459163163        9.2889186224       20.1025388771
 Zn         3.5797020179       18.8734932880        8.0550191897
 Cl         2.3459218134       20.1025441833        9.2889171167
 Zn        14.4006044322       14.7281765992        8.0552860676
 Cl        13.1716295713       13.4948268688        9.2895409368
 Zn        14.3997049878        3.9106607646       18.8721101770
 Cl        13.1650713696        2.6773337670       20.1008254745
 Zn         3.5817194274       14.7310977259       18.8742660244
 Cl         2.3500383328       13.4979784595       20.1061650704
 Zn         3.5799151523        3.9117285626        8.0546962239
 Cl         2.3481696606        2.6804897810        9.2883892815
 Zn         7.7241619660        8.0551816017        8.0551816392
 Cl         8.9559602175        9.2876438314        9.2876455638
 Zn         7.7263691259       18.8738909414       18.8738928113
 Cl         8.9605052766       20.1051903499       20.1051990098
 Zn        18.5430497503        8.0539329031       18.8741568685
 Cl        19.7723016269        9.2876754884       20.1078635145
 Zn        18.5430550539       18.8741571819        8.0539374169
 Cl        19.7723060013       20.1078680954        9.2876767568
 Zn        14.4006022880        8.0552815692       14.7281817828
 Cl        13.1716258307        9.2895354302       13.4948332601
 Zn        14.3997009485       18.8721106032        3.9106638420
 Cl        13.1650647054       20.1008239488        2.6773361274
 Zn         3.5799210298        8.0546922842        3.9117411660
 Cl         2.3481807403        9.2883770925        2.6804956411
 Zn         3.5817151760       18.8742647475       14.7311037314
 Cl         2.3500398406       20.1061670055       13.4979822254
 Zn         7.7249327695       14.7301295951       14.7301336179
 Cl         8.9563322115       13.4975235712       13.4975258514
 Zn         7.7242041141        3.9127039978        3.9126970729
 Cl         8.9568612154        2.6807027558        2.6807090866
 Zn        18.5442756273       14.7295446693        3.9123464914
 Cl        19.7774711547       13.4955342379        2.6828741339
 Zn        18.5442762029        3.9123497319       14.7295470914
 Cl        19.7774698846        2.6828778793       13.4955364953
 Zn         5.6507685068        5.9886366795       16.8068619863
 Zn        16.4720432793       16.8056556883       16.8056714056
 Zn        16.4706658707        5.9886982191        5.9886826377
 Zn         5.6507663692       16.8068534061        5.9886291962
 Zn         5.6500919182        5.9882793924        5.9882144364
 Zn        16.4697561579       16.8056558933        5.9874911898
 Zn         5.6536216992       16.8074198588       16.8074241212
 Zn        16.4697507133        5.9874920337       16.8056623413
  N         3.4663632479        5.9834587308       16.8019505778
  N        14.2865553545        5.9857563040        5.9857134499
  N        18.6583490084       16.8021836445       16.8021853374
  N         7.8376453042       16.8023285930        5.9854333627
  N        18.6570503766        5.9824123492        5.9824195757
  N         7.8376413336        5.9854373957       16.8023501763
  N         3.4663645679       16.8019471356        5.9834593998
  N        14.2875584805       16.8012229588       16.8012268311
  N        16.4698397753        3.7984669500        5.9849924080
  N        16.4728725114       14.6173699825       16.8010783232
  N        16.4723685310       18.9884682480       16.8012106296
  N        16.4747830875        8.1690406275        5.9860608966
  N         5.6521423369       18.9893156603        5.9852385502
  N         5.6520720711        8.1694832493       16.8019640789
  N         5.6533308900        3.7991010798       16.8035763117
  N         5.6520868339       14.6181356272        5.9836477653
  N         5.6533401179       16.8035666994        3.7991029328
  N         5.6520630735        5.9836628682       14.6181497069
  N        16.4723617563       16.8012094657       18.9884726895
  N        16.4747930396        5.9860637318        8.1690416324
  N         5.6521614687        5.9852548763       18.9893238631
  N         5.6520699586       16.8019501608        8.1694869214
  N        16.4698290064        5.9849917426        3.7984725849
  N        16.4728808653       16.8010747183       14.6173713551
  N         5.6519715364        3.7987888631        5.9840347177
  N         5.6536033890       14.6183927467       16.8029042273
  N        16.4700549484       18.9887450922        5.9827724946
  N        16.4710955629        8.1686805446       16.8023483040
  N         5.6541549995       18.9896064844       16.8029641809
  N         5.6518696616        8.1693216989        5.9838710504
  N        16.4712916893        3.7980628273       16.8000078511
  N        16.4744804484       14.6174408064        5.9864083431
  N         3.4677468492       16.8031744029       16.8031774344
  N        14.2865790490       16.7998444031        5.9832667706
  N        18.6571281333       16.8031896942        5.9829787197
  N         7.8386898929       16.8022509409       16.8022540999
  N        18.6571251729        5.9829869655       16.8031836270
  N         7.8374431244        5.9842973782        5.9842639300
  N         3.4660216802        5.9847970999        5.9848116486
  N        14.2865726132        5.9832815414       16.7998685993
  N        16.4700373393        5.9827839211       18.9887542145
  N        16.4711067486       16.8023403378        8.1686777381
  N        16.4712882958       16.8000055599        3.7980614691
  N        16.4744886257        5.9864187697       14.6174469590
  N         5.6519925088        5.9840471146        3.7987898900
  N         5.6535991488       16.8029014741       14.6183993663
  N         5.6541593723       16.8029582807       18.9896093628
  N         5.6518468246        5.9838790868        8.1693334607
  C        11.0627875688       15.7430747531       15.7430747401
  H        11.0624222868       14.9675095014       14.9675057343
  C        11.0625863823        4.9265729302        4.9265840980
  H        11.0632228111        4.1510212828        4.1509949621
  C         0.2416503416       15.7424166509        4.9262574038
  H         0.2413084135       14.9665533917        4.1509919760
  C         0.2416499930        4.9262634666       15.7424099771
  H         0.2413072016        4.1510044431       14.9665396168
  C        11.0621470262        7.0405440914       15.7402074761
  H        11.0619924362        7.8158192137       14.9643597392
  C        11.0622754595       17.8583779819        4.9249973831
  H        11.0623214683       18.6345447388        4.1500376157
  C         0.2415591918        7.0426243530        4.9257694441
  H         0.2415659513        7.8184585556        4.1504871164
  C         0.2430507104       17.8579295547       15.7411863728
  H         0.2430691196       18.6332903801       14.9654290287
  C        11.0621528877       15.7401894013        7.0405383363
  H        11.0620011154       14.9643398075        7.8158114471
  C        11.0622721925        4.9250048087       17.8583982692
  H        11.0623250475        4.1500486436       18.6345683040
  C         0.2430514043       15.7411818428       17.8579323177
  H         0.2430748695       14.9654237529       18.6332922845
  C         0.2415595788        4.9257623199        7.0426274452
  H         0.2415566313        4.1504806206        7.8184612836
  C        11.0615608375        7.0434137853        7.0434265959
  H        11.0607123469        7.8189831135        7.8189596450
  C        11.0634822999       17.8599433507       17.8599449018
  H        11.0637535123       18.6355011413       18.6355000244
  C         0.2419572137        7.0430485935       17.8592140696
  H         0.2423366575        7.8188401533       18.6345291238
  C         0.2419596009       17.8592206657        7.0430431372
  H         0.2423439023       18.6345430380        7.8188278103
  C        15.4158625938       11.3929032555       15.7407982147
  H        14.6404104311       11.3928612697       14.9651003439
  C        15.4108315777        0.5737834805        4.9259485915
  H        14.6350681679        0.5742237296        4.1506026414
  C         4.5943209136       11.3935367840        4.9242960401
  H         3.8188170895       11.3934081103        4.1486865621
  C         4.5976183133        0.5741607459       15.7428349351
  H         3.8222176733        0.5743249339       14.9671084270
  C        15.4218009079       11.3928442001        7.0502107071
  H        14.6467709409       11.3924473332        7.8262984386
  C        15.4117676285        0.5731426142       17.8569129957
  H        14.6363048491        0.5732878811       18.6325619121
  C         4.5938729184       11.3938294651       17.8601762475
  H         3.8184091723       11.3938470016       18.6358226757
  C         4.5937153806        0.5740843678        7.0427726127
  H         3.8179131881        0.5744165175        7.8180793020
  C         6.7104629702       11.3936385518       15.7430559356
  H         7.4859321180       11.3935725914       14.9673899376
  C         6.7119256538        0.5737140489        4.9275430716
  H         7.4883162766        0.5734494771        4.1528140171
  C        17.5367475548       11.3931354522        4.9311403118
  H        18.3112887956       11.3932775288        4.1545800590
  C        17.5275927406        0.5730814942       15.7393936682
  H        18.3027186323        0.5729532938       14.9634054654
  C         6.7108743258       11.3935446712        7.0415306787
  H         7.4861793852       11.3935444153        7.8173538286
  C         6.7144955643        0.5742027221       17.8593545349
  H         7.4902532495        0.5740989104       18.6346995135
  C        17.5324239535       11.3927587714       17.8581038880
  H        18.3077119012       11.3927094709       18.6339190712
  C        17.5272331977        0.5730836377        7.0428690855
  H        18.3024373305        0.5726829347        7.8187797387
  C        15.4158691621       15.7407956351       11.3929026224
  H        14.6404176784       14.9650969523       11.3928586897
  C        15.4108214810        4.9259494450        0.5737901002
  H        14.6350539098        4.1506075504        0.5742314641
  C         4.5976177745       15.7428359671        0.5741628301
  H         3.8222188482       14.9671078745        0.5743258968
  C         4.5943226375        4.9242905804       11.3935441211
  H         3.8188012070        4.1486990316       11.3934374787
  C         6.7104628857       15.7430533109       11.3936463448
  H         7.4859327970       14.9673882131       11.3935845891
  C         6.7119260131        4.9275390589        0.5737176834
  H         7.4883352468        4.1528283823        0.5734648020
  C        17.5275932381       15.7393971632        0.5730836332
  H        18.3027184070       14.9634086361        0.5729533323
  C        17.5367569182        4.9311473366       11.3931392182
  H        18.3113034531        4.1545919832       11.3932874036
  C        15.4218105695        7.0502155476       11.3928473239
  H        14.6467854852        7.8263080095       11.3924548530
  C        15.4117670113       17.8569181417        0.5731440296
  H        14.6363039028       18.6325665879        0.5732846115
  C         4.5937122591        7.0427703446        0.5740860583
  H         3.8179274597        7.8180950638        0.5744344405
  C         4.5938736375       17.8601728909       11.3938337740
  H         3.8184108850       18.6358205336       11.3938512667
  C         6.7108754168        7.0415208010       11.3935533193
  H         7.4861652311        7.8173597705       11.3935668746
  C         6.7144964020       17.8593550143        0.5742050779
  H         7.4902563286       18.6346981847        0.5741079179
  C        17.5272214239        7.0428727981        0.5730907499
  H        18.3024206868        7.8187883998        0.5726912495
  C        17.5324295653       17.8581009999       11.3927590198
  H        18.3077175178       18.6339163318       11.3927133967
 Xe        18.5019567049       10.4593782134       10.4593777645
