     409
 i =     150, E =    -5183.7549507194
  N         2.7275497054        5.2053294722       16.0232983536
  C         1.4097706182        5.4759949885       16.2927291154
  N        13.5487702413        5.2097461959        5.2097446730
  C        12.2309267808        5.4791362449        5.4791387678
  N        19.4113264674       17.5801817682       16.0240078766
  C        20.7289906668       17.3084343498       16.2923878661
  N         8.5916752443       17.5799264015        5.2070326472
  C         9.9092081426       17.3084285951        5.4759529834
  N        19.4120660907        5.2049767027        6.7610932081
  C        20.7296316794        5.4755434441        6.4915918758
  N         8.5916741671        5.2070342984       17.5799282859
  C         9.9092070305        5.4759534125       17.3084309307
  N         2.7276149956       17.5790580471        6.7612840365
  C         1.4099428407       17.3086768460        6.4920317038
  N        13.5473407796       17.5795295861       17.5795311200
  C        12.2297379217       17.3095549701       17.3095555472
  N        15.6987472504        3.0534151545        5.2083374302
  C        15.9677563088        1.7353706227        5.4782990945
  N        15.7016470398       13.8715225873       16.0233467841
  C        15.9720438884       12.5538634927       16.2927307888
  N        15.6991055057       19.7358033683       17.5794336488
  C        15.9674287442       21.0534992307       17.3075138149
  N        15.7077249116        8.9164908534        6.7674163676
  C        15.9793858324       10.2338324535        6.4995113264
  N         6.4374985173       19.7354282271        5.2072577410
  C         6.1675174002       21.0531726735        5.4769710482
  N         6.4362551744        8.9156691914       16.0234615745
  C         6.1656097816       10.2331946778       16.2929228409
  N         6.4388357694        3.0519654875       17.5807147376
  C         6.1696482138        1.7342460523       17.3099434384
  N         6.4365383349       13.8710260578        6.7618603226
  C         6.1667407398       12.5535514817        6.4916488839
  N         4.8833127897       16.0245801025        3.0521916059
  C         5.1539034268       16.2937232649        1.7344097326
  N         4.8816098468        5.2053208781       13.8715086210
  C         5.1513125711        5.4751357122       12.5537500859
  N        17.2548314815       16.0228096895       19.7357030396
  C        16.9831577546       16.2911418143       21.0534084988
  N        17.2623808687        5.2102342155        8.9165084283
  C        16.9943641330        5.4825312392       10.2339673044
  N         4.8805857305        6.7625320492       19.7357832003
  C         5.1509399669        6.4924725028       21.0533993283
  N         4.8804954865       17.5799574806        8.9156194603
  C         5.1498384329       17.3092289363       10.2331967413
  N        17.2546371302        6.7640762456        3.0523810880
  C        16.9838389872        6.4941729283        1.7348011752
  N        17.2571186435       17.5793946715       13.8714264349
  C        16.9877561992       17.3089695782       12.5538508985
  N         4.8816716610        3.0520455933        6.7617166247
  C         5.1515574945        1.7343119900        6.4919980999
  N         4.8814534476       13.8715211723       17.5804147391
  C         5.1502478419       12.5538391639       17.3095130783
  N        17.2548986228       19.7362458922        6.7620560955
  C        16.9838750260       21.0538996266        6.4931001065
  N        17.2569455462        8.9159756833       17.5805944612
  C        16.9876529849       10.2334296566       17.3096043764
  N         4.8825320723       19.7357135819       16.0240324979
  C         5.1534446475       21.0534122552       16.2933858237
  N         4.8812879815        8.9154285081        5.2053800225
  C         5.1512260464       10.2330642656        5.4752121780
  N        17.2543728666        3.0522004897       16.0220347434
  C        16.9830089928        1.7344557256       16.2907043842
  N        17.2606069357       13.8718911706        5.2103310653
  C        16.9934556084       12.5542561314        5.4826297856
  N         2.7277185577       16.0239791599       17.5798631212
  C         1.4099641951       16.2923165158       17.3083110251
  N        13.5475260937       16.0213226184        6.7614605660
  C        12.2298196946       16.2908563535        6.4910399748
  N        19.4109767785       16.0253326460        5.2054345772
  C        20.7287603431       16.2939275383        5.4762320187
  N         8.5912093011       16.0238097025       16.0238121075
  C         9.9089119042       16.2936706535       16.2936720108
  N        19.4117926826        6.7618093849       17.5811922398
  C        20.7292486009        6.4923654730       17.3098647115
  N         8.5916402866        6.7627551006        6.7627420634
  C         9.9093735588        6.4933702912        6.4933680223
  N         2.7279816261        6.7622475765        5.2064700082
  C         1.4103157861        6.4922001983        5.4762288734
  N        13.5475260709        6.7614622201       16.0213287865
  C        12.2298190883        6.4910413014       16.2908606718
  N        15.6984373702        5.2062121006       19.7362839109
  C        15.9676452192        5.4772337561       21.0540756812
  N        15.7007493893       16.0246171385        8.9156982703
  C        15.9717431455       16.2934424169       10.2332582805
  N        15.6992603619       17.5787104147        3.0523815961
  C        15.9674646252       17.3071418944        1.7345689710
  N        15.7065607857        6.7675826286       13.8714614394
  C        15.9786936969        6.4997919916       12.5539633806
  N         6.4382758930        5.2066509920        3.0518623324
  C         6.1680469904        5.4765309500        1.7341211277
  N         6.4367148347       16.0241144947       13.8713622028
  C         6.1658904475       16.2932105931       12.5537730352
  N         6.4384088680       17.5803940079       19.7357821119
  C         6.1692757567       17.3096273116       21.0533994574
  N         6.4366217231        6.7621253157        8.9158858524
  C         6.1667520970        6.4917321087       10.2332490680
  N        19.4117917996       17.5811917081        6.7618073781
  C        20.7292479590       17.3098664183        6.4923638474
  N         8.5917542265       17.5799649610       17.5799639792
  C         9.9091799986       17.3097076300       17.3097074653
  N         2.7279821286        5.2064691025        6.7622441596
  C         1.4103150235        5.4762285703        6.4921982268
  N        13.5475536423        5.2069659148       17.5785992183
  C        12.2298917065        5.4758833290       17.3076832363
  N         2.7277197347       17.5798620976       16.0239814248
  C         1.4099644680       17.3083111466       16.2923169965
  N        13.5475553190       17.5785942336        5.2069637161
  C        12.2298936434       17.3076791736        5.4758815819
  N        19.4109750285        5.2054378189       16.0253331957
  C        20.7287599826        5.4762337228       16.2939259311
  N         8.5926251284        5.2066682112        5.2066525697
  C         9.9100994807        5.4773455939        5.4773426522
  N         6.4384087970       19.7357831493       17.5803946043
  C         6.1692757058       21.0534007035       17.3096277958
  N         6.4366274542        8.9158842908        6.7621081984
  C         6.1667533303       10.2332473943        6.4917228267
  N         6.4382705286        3.0518642265        5.2066380254
  C         6.1680462476        1.7341225680        5.4765249535
  N         6.4367141574       13.8713593055       16.0241165988
  C         6.1658886985       12.5537698039       16.2932107852
  N        15.6992576699        3.0523838840       17.5787091970
  C        15.9674621457        1.7345710796       17.3071396578
  N        15.7065597294       13.8714580050        6.7675804065
  C        15.9786919609       12.5539602390        6.4997891582
  N        15.6984397263       19.7362843674        5.2062087327
  C        15.9676467734       21.0540753244        5.4772341730
  N        15.7007450063        8.9156984752       16.0246196413
  C        15.9717400820       10.2332582486       16.2934444861
  N        17.2548983349        6.7620563858       19.7362471605
  C        16.9838741152        6.4930986692       21.0539006138
  N        17.2569482154       17.5805950002        8.9159782784
  C        16.9876551454       17.3096037276       10.2334315926
  N         4.8816767567        6.7617241035        3.0520438088
  C         5.1515569253        6.4920017870        1.7343116136
  N         4.8814542525       17.5804136940       13.8715244811
  C         5.1502493704       17.3095133120       12.5538423343
  N        17.2543753134       16.0220358704        3.0521970760
  C        16.9830113970       16.2907063868        1.7344530201
  N        17.2606053553        5.2103311319       13.8718943433
  C        16.9934560140        5.4826314875       12.5542587820
  N         4.8825339745       16.0240297593       19.7357122221
  C         5.1534457396       16.2933841713       21.0534101849
  N         4.8812834877        5.2053915464        8.9154260245
  C         5.1512262325        5.4752195364       10.2330645145
  N        17.2548316998       19.7357067804       16.0228060846
  C        16.9831565571       21.0534115427       16.2911391785
  N        17.2623791298        8.9165046520        5.2102331825
  C        16.9943616623       10.2339637648        5.4825299144
  N         4.8833125643        3.0521932904       16.0245793195
  C         5.1539029420        1.7344114095       16.2937220658
  N         4.8816183365       13.8715101308        5.2053169578
  C         5.1513134642       12.5537503015        5.4751322963
  N        17.2546405160        3.0523806651        6.7640783363
  C        16.9838418507        1.7348003047        6.4941760143
  N        17.2571173681       13.8714236662       17.5793971324
  C        16.9877538173       12.5538489458       17.3089705205
  N         4.8805823928       19.7357838909        6.7625296875
  C         5.1509405050       21.0534004369        6.4924708240
  N         4.8804928611        8.9156163334       17.5799560918
  C         5.1498358294       10.2331935035       17.3092276410
  N        19.4120629072        6.7610877432        5.2049811917
  C        20.7296300333        6.4915891199        5.4755462692
  N         8.5913825354        6.7621309449       16.0228291187
  C         9.9090266590        6.4912928666       16.2917036347
  N         2.7276146538        6.7612822243       17.5790564848
  C         1.4099425288        6.4920319164       17.3086736367
  N        13.5478199466        6.7655417266        6.7655380193
  C        12.2301797206        6.4951157571        6.4951170194
  N         2.7275509150       16.0232993706        5.2053315441
  C         1.4097705633       16.2927318409        5.4759952688
  N        13.5475287762       16.0236602613       16.0236573397
  C        12.2297861041       16.2935661086       16.2935648950
  N        19.4113254739       16.0240070341       17.5801784513
  C        20.7289900172       16.2923874220       17.3084329598
  N         8.5913813242       16.0228280343        6.7621285314
  C         9.9090269333       16.2917019553        6.4912923866
  N         6.4388384502       17.5807118257        3.0519656117
  C         6.1696495531       17.3099434366        1.7342453587
  N         6.4365334773        6.7618614107       13.8710314860
  C         6.1667403854        6.4916503548       12.5535548560
  N         6.4375029551        5.2072603243       19.7354309430
  C         6.1675186104        5.4769726932       21.0531735479
  N         6.4362545480       16.0234605283        8.9156717060
  C         6.1656110784       16.2929233260       10.2331980357
  N        15.6991072926       17.5794389254       19.7358020446
  C        15.9674307885       17.3075174227       21.0534974198
  N        15.7077233641        6.7674143222        8.9164946111
  C        15.9793872008        6.4995114296       10.2338362191
  N        15.6987482294        5.2083302734        3.0534162005
  C        15.9677556330        5.4782936235        1.7353716845
  N        15.7016471910       16.0233460290       13.8715219689
  C        15.9720459295       16.2927304918       12.5538632551
 Zn        14.4070383535       14.7296110104       14.7296087967
 Cl        13.1774696308       13.4960908514       13.4960905990
 Zn        14.4056636732        3.9155627570        3.9155702223
 Cl        13.1703336812        2.6846966591        2.6846969528
 Zn         3.5886092603       14.7308048265        3.9106455306
 Cl         2.3596251975       13.4973012087        2.6764520327
 Zn         3.5886046482        3.9106450549       14.7308007135
 Cl         2.3596228804        2.6764463518       13.4972999824
 Zn         7.7299325973        8.0553285535       14.7291776753
 Cl         8.9617421837        9.2882318563       13.4971466075
 Zn         7.7308319539       18.8742521779        3.9135822919
 Cl         8.9651127980       20.1079522776        2.6847349803
 Zn        18.5505509958        8.0550603788        3.9117744443
 Cl        19.7823134433        9.2885165146        2.6802262176
 Zn        18.5496109103       18.8739375535       14.7303586138
 Cl        19.7812124158       20.1054555562       13.4967302940
 Zn         7.7299302407       14.7291822382        8.0553252898
 Cl         8.9617463381       13.4971657735        9.2882335990
 Zn         7.7308339938        3.9135764500       18.8742558782
 Cl         8.9651218193        2.6847319093       20.1079528870
 Zn        18.5496101280       14.7303592592       18.8739366077
 Cl        19.7812121513       13.4967380602       20.1054610966
 Zn        18.5505507578        3.9117768525        8.0550636390
 Cl        19.7823019851        2.6802213720        9.2885219325
 Zn        14.4114629483        8.0577675090        8.0577686352
 Cl        13.1876976381        9.2943704492        9.2943686510
 Zn        14.4060930614       18.8735239896       18.8735220416
 Cl        13.1720629295       20.1048784659       20.1048683353
 Zn         3.5861656742        8.0545344749       18.8733934531
 Cl         2.3521875990        9.2880494338       20.1026043388
 Zn         3.5861746146       18.8733907519        8.0545325684
 Cl         2.3521950741       20.1026043968        9.2880402431
 Zn        14.4078426001       14.7287826333        8.0559328772
 Cl        13.1805007800       13.4945189060        9.2909875342
 Zn        14.4057960863        3.9125455783       18.8729275741
 Cl        13.1711402511        2.6794899818       20.1019674806
 Zn         3.5878278842       14.7308860464       18.8741082670
 Cl         2.3562478354       13.4976440658       20.1060221527
 Zn         3.5872814933        3.9115764681        8.0544716894
 Cl         2.3559376493        2.6797686330        9.2880223322
 Zn         7.7300694488        8.0556200110        8.0556120984
 Cl         8.9622751434        9.2879724281        9.2879534540
 Zn         7.7310823830       18.8738689546       18.8738686380
 Cl         8.9655102311       20.1050650004       20.1050663401
 Zn        18.5495911661        8.0545530370       18.8747884506
 Cl        19.7794953311        9.2883076224       20.1079184990
 Zn        18.5495931831       18.8747893078        8.0545537280
 Cl        19.7795041617       20.1079219633        9.2882997229
 Zn        14.4078439144        8.0559304488       14.7287902505
 Cl        13.1804971121        9.2909765656       13.4945250691
 Zn        14.4057948813       18.8729279270        3.9125392444
 Cl        13.1711343313       20.1019677704        2.6794867580
 Zn         3.5872959800        8.0544681701        3.9115822363
 Cl         2.3559473712        9.2880070392        2.6797727152
 Zn         3.5878278551       18.8741082391       14.7308901333
 Cl         2.3562450398       20.1060186076       13.4976473836
 Zn         7.7300256591       14.7297818407       14.7297871224
 Cl         8.9619519299       13.4974069367       13.4974077289
 Zn         7.7309660501        3.9125189987        3.9125037449
 Cl         8.9646670468        2.6809827804        2.6809710123
 Zn        18.5497791372       14.7304577878        3.9124006970
 Cl        19.7829081349       13.4966348733        2.6826131035
 Zn        18.5497790627        3.9124052363       14.7304603768
 Cl        19.7829104261        2.6826204056       13.4966374650
 Zn         5.6634901299        5.9882738296       16.8066148319
 Zn        16.4827760325       16.8068011347       16.8068006883
 Zn        16.4845822860        5.9901099779        5.9901143328
 Zn         5.6634862079       16.8066067938        5.9882797168
 Zn         5.6638589497        5.9880292648        5.9880373547
 Zn        16.4828350757       16.8069546411        5.9885909400
 Zn         5.6639252648       16.8069413445       16.8069408567
 Zn        16.4828325943        5.9885882784       16.8069542857
  N         3.4742750432        5.9829651253       16.8015784393
  N        14.2950014154        5.9877856262        5.9877801738
  N        18.6649643641       16.8031347762       16.8031330769
  N         7.8451696033       16.8021997959        5.9852170313
  N        18.6657540618        5.9828914452        5.9828971338
  N         7.8451692517        5.9852196255       16.8022012831
  N         3.4742749870       16.8015776584        5.9829671381
  N        14.2941123434       16.8016902350       16.8016892263
  N        16.4772679155        3.7996340264        5.9861470209
  N        16.4791000725       14.6181889283       16.8017518396
  N        16.4780202023       18.9893786337       16.8022203075
  N        16.4839574620        8.1701397027        5.9877637256
  N         5.6590509029       18.9892128353        5.9850231658
  N         5.6588253047        8.1693130780       16.8021454453
  N         5.6606658185        3.7987796112       16.8031338472
  N         5.6591762126       14.6179821443        5.9837394596
  N         5.6606673679       16.8031313019        3.7987788192
  N         5.6591666762        5.9837430699       14.6179839342
  N        16.4780207632       16.8022253442       18.9893763316
  N        16.4839562594        5.9877627223        8.1701434286
  N         5.6590567997        5.9850264099       18.9892132789
  N         5.6588262876       16.8021449269        8.1693164406
  N        16.4772674067        5.9861426229        3.7996351291
  N        16.4790996427       16.8017495478       14.6181896987
  N         5.6600640147        3.7986543724        5.9842106565
  N         5.6597099417       14.6181542871       16.8028269605
  N        16.4772428790       18.9898720935        5.9836340127
  N        16.4784004878        8.1695046234       16.8031867022
  N         5.6600338292       18.9893571027       16.8027032605
  N         5.6590111001        8.1692894018        5.9839492059
  N        16.4778087994        3.7989893907       16.8013138662
  N        16.4821223557       14.6184426730        5.9876772932
  N         3.4744134255       16.8029063941       16.8029081054
  N        14.2942142526       16.8005356781        5.9846844862
  N        18.6650089988       16.8039909441        5.9832678053
  N         7.8451425493       16.8020485208       16.8020492561
  N        18.6650089752        5.9832700374       16.8039922001
  N         7.8457641310        5.9845053334        5.9844830983
  N         3.4747117707        5.9844322252        5.9844333611
  N        14.2942125644        5.9846859325       16.8005417016
  N        16.4772414119        5.9836365136       18.9898726973
  N        16.4784044880       16.8031864254        8.1695056086
  N        16.4778110326       16.8013148310        3.7989873986
  N        16.4821216362        5.9876768822       14.6184452034
  N         5.6600740417        5.9842230112        3.7986535217
  N         5.6597098550       16.8028247531       14.6181573034
  N         5.6600354514       16.8027016608       18.9893553975
  N         5.6590017261        5.9839662246        8.1692905253
  C        11.0693325904       15.7432042857       15.7432043886
  H        11.0691752642       14.9676399309       14.9676405113
  C        11.0713457618        4.9278342228        4.9278359790
  H        11.0727694983        4.1522662275        4.1522654455
  C         0.2489715601       15.7426106149        4.9260738168
  H         0.2481924098       14.9667685852        4.1507913034
  C         0.2489689734        4.9260736994       15.7426084224
  H         0.2481844171        4.1507894224       14.9667680326
  C        11.0693188857        7.0409783752       15.7402743253
  H        11.0689333563        7.8162010589       14.9643807567
  C        11.0697117202       17.8586536989        4.9257084693
  H        11.0699004566       18.6349065984        4.1508309652
  C         0.2499953823        7.0424924594        4.9256439183
  H         0.2499665533        7.8183421770        4.1503763015
  C         0.2495053288       17.8581434522       15.7414267971
  H         0.2494806914       18.6334739217       14.9656392556
  C        11.0693177192       15.7402718036        7.0409773806
  H        11.0689257034       14.9643780327        7.8162001172
  C        11.0697113180        4.9257102094       17.8586577827
  H        11.0699066300        4.1508354279       18.6349136109
  C         0.2495044147       15.7414261899       17.8581429178
  H         0.2494812130       14.9656403749       18.6334745837
  C         0.2499991839        4.9256427033        7.0424913785
  H         0.2499744932        4.1503742859        7.8183414133
  C        11.0690536704        7.0446304953        7.0446309552
  H        11.0674252633        7.8201748598        7.8201705326
  C        11.0695480799       17.8600409756       17.8600407325
  H        11.0695506446       18.6356010997       18.6355990820
  C         0.2499616828        7.0429394607       17.8592856860
  H         0.2506867658        7.8187588168       18.6345777560
  C         0.2499611738       17.8592889327        7.0429384230
  H         0.2506886141       18.6345813926        7.8187573651
  C        15.4218645701       11.3934902652       15.7421277817
  H        14.6466130922       11.3932042465       14.9662188589
  C        15.4170181568        0.5750226004        4.9278052970
  H        14.6411623558        0.5755352443        4.1525567574
  C         4.6011116863       11.3934453582        4.9244115285
  H         3.8258993508       11.3934044433        4.1485007695
  C         4.6038078344        0.5741164007       15.7427052556
  H         3.8287525856        0.5745324246       14.9666338138
  C        15.4299916769       11.3936522981        7.0517565934
  H        14.6553130753       11.3929521044        7.8282058707
  C        15.4168273099        0.5741508559       17.8573484181
  H        14.6414393597        0.5743732845       18.6330711985
  C         4.5995876062       11.3935599898       17.8597779690
  H         3.8243268377       11.3935587994       18.6356332264
  C         4.6007441044        0.5741045310        7.0424694462
  H         3.8251471903        0.5746245591        7.8179857945
  C         6.7158387988       11.3934993422       15.7422597534
  H         7.4912704361       11.3934675607       14.9665532706
  C         6.7185873988        0.5734354992        4.9268274485
  H         7.4949274668        0.5729204217        4.1520493502
  C        17.5443420006       11.3943472904        4.9319948454
  H        18.3187339409       11.3946937271        4.1552995609
  C        17.5327306549        0.5738930768       15.7399007243
  H        18.3080220505        0.5737129743       14.9640721013
  C         6.7169256477       11.3934483917        7.0424673282
  H         7.4919607819       11.3934191223        7.8185731302
  C         6.7200393679        0.5737015225       17.8599536755
  H         7.4956578195        0.5732987421       18.6354472756
  C        17.5382480091       11.3937822219       17.8596501755
  H        18.3136060755       11.3939650248       18.6353943799
  C        17.5339801075        0.5741424367        7.0441583056
  H        18.3094923308        0.5737066563        7.8197654873
  C        15.4218674737       15.7421263413       11.3934912683
  H        14.6466166358       14.9662167700       11.3932105486
  C        15.4170175471        4.9278017178        0.5750216017
  H        14.6411621290        4.1525527803        0.5755305150
  C         4.6038090975       15.7427044725        0.5741162160
  H         3.8287562533       14.9666309649        0.5745374952
  C         4.6011133869        4.9244168592       11.3934427863
  H         3.8258995840        4.1485075107       11.3934005383
  C         6.7158402006       15.7422598688       11.3935013062
  H         7.4912716107       14.9665532582       11.3934641424
  C         6.7185885233        4.9268319330        0.5734375173
  H         7.4949327429        4.1520571195        0.5729298504
  C        17.5327325826       15.7399028531        0.5738892271
  H        18.3080242547       14.9640744996        0.5737077195
  C        17.5443439852        4.9319963161       11.3943519949
  H        18.3187357223        4.1553006490       11.3947024323
  C        15.4299938166        7.0517589124       11.3936550773
  H        14.6553160217        7.8282086659       11.3929534026
  C        15.4168299924       17.8573514410        0.5741487783
  H        14.6414421556       18.6330745819        0.5743692067
  C         4.6007412731        7.0424714684        0.5741033019
  H         3.8251449436        7.8179879892        0.5746294217
  C         4.5995889207       17.8597781520       11.3935630167
  H         3.8243249899       18.6356303267       11.3935579099
  C         6.7169259797        7.0424724778       11.3934528619
  H         7.4919590736        7.8185799649       11.3934272896
  C         6.7200394489       17.8599535507        0.5737002449
  H         7.4956574883       18.6354476584        0.5732977957
  C        17.5339777875        7.0441560725        0.5741437238
  H        18.3094891906        7.8197638132        0.5737062549
  C        17.5382502991       17.8596495306       11.3937843417
  H        18.3136086142       18.6353937080       11.3939679491
 Xe        18.1087978724       10.4166782797       10.4166772060
