 DBCSR| CPU Multiplication driver                                           XSMM (U)
 DBCSR| Multrec recursion limit                                              512 (U)
 DBCSR| Multiplication stack size                                           1000 (D)
 DBCSR| Maximum elements for images                                    UNLIMITED (U)
 DBCSR| Multiplicative factor virtual images                                   1 (U)
 DBCSR| Use multiplication densification                                       T (D)
 DBCSR| Multiplication size stacks                                             3 (U)
 DBCSR| Use memory pool for CPU allocation                                     F (U)
 DBCSR| Number of 3D layers                                               SINGLE (U)
 DBCSR| Use MPI memory allocation                                              F (U)
 DBCSR| Use RMA algorithm                                                      F (U)
 DBCSR| Use Communication thread                                               T (U)
 DBCSR| Communication thread load                                             87 (D)
 DBCSR| MPI: My process id                                                     0
 DBCSR| MPI: Number of processes                                             144
 DBCSR| OMP: Current number of threads                                         1
 DBCSR| OMP: Max number of threads                                             1
 DBCSR| Split modifier for TAS multiplication algorithm                  1.0E+00 (U)


  **** **** ******  **  PROGRAM STARTED AT               2024-09-13 03:22:54.368
 ***** ** ***  *** **   PROGRAM STARTED ON                              nid02963
 **    ****   ******    PROGRAM STARTED BY                              bsertcan
 ***** **    ** ** **   PROGRAM PROCESS ID                                 14955
  **** **  *******  **  PROGRAM STARTED IN /scratch/snx3000/bsertcan/MFU_sp/rsca
                                           n/cl/xe/rep43

 CP2K| version string:                 CP2K version 2024.2 (Development Version)
 CP2K| source code revision number:                                  git:42d1e6b
 CP2K| cp2kflags: omp libint fftw3 libxc parallel scalapack xsmm                
 CP2K| is freely available from                            https://www.cp2k.org/
 CP2K| Program compiled at                         Tue Sep  3 22:59:39 CEST 2024
 CP2K| Program compiled on                                              daint106
 CP2K| Program compiled for                                                local
 CP2K| Data directory path                             /users/bsertcan/cp2k/data
 CP2K| Input file name                                                 input.inp

 GLOBAL| Force Environment number                                              1
 GLOBAL| Basis set file name                                    BASIS_MOLOPT_UZH
 GLOBAL| Potential file name                                       POTENTIAL_UZH
 GLOBAL| MM Potential file name                                     MM_POTENTIAL
 GLOBAL| Coordinate file name                                         rep_43.xyz
 GLOBAL| Method name                                                        CP2K
 GLOBAL| Project name                                                 Replica_43
 GLOBAL| Run type                                                         ENERGY
 GLOBAL| FFT library                                                       FFTW3
 GLOBAL| Diagonalization library                                       ScaLAPACK
 GLOBAL| DGEMM library                                                      BLAS
 GLOBAL| Orthonormality check for eigenvectors                          DISABLED
 GLOBAL| Matrix multiplication library                                 ScaLAPACK
 GLOBAL| All-to-all communication in single precision                          F
 GLOBAL| FFTs using library dependent lengths                                  F
 GLOBAL| Grid backend                                                       AUTO
 GLOBAL| Global print level                                                  LOW
 GLOBAL| MPI I/O enabled                                                       T
 GLOBAL| Total number of message passing processes                           144
 GLOBAL| Number of threads for this process                                    1
 GLOBAL| This output is from process                                           0
 GLOBAL| Stack size for threads created by OpenMP (OMP_STACKSIZE)             5M
 GLOBAL| CPU model name                Intel(R) Xeon(R) CPU E5-2690 v3 @ 2.60GHz
 GLOBAL| CPUID                                                              1002

 MEMORY| system memory details [Kb]
 MEMORY|                        rank 0           min           max       average
 MEMORY| MemTotal             65740148      65740148      65740148      65740148
 MEMORY| MemFree              61070268      60835944      61223240      60935797
 MEMORY| Buffers                  7804          7520          9248          8688
 MEMORY| Cached                1701772       1602540       1875624       1818529
 MEMORY| Slab                   218220        211832        218292        216769
 MEMORY| SReclaimable            50872         49408         50872         50326
 MEMORY| MemLikelyFree        62830716      62769788      62882708      62813342


 *******************************************************************************
 *******************************************************************************
 **                                                                           **
 **     #####                         ##              ##                      **
 **    ##   ##            ##          ##              ##                      **
 **   ##     ##                       ##            ######                    **
 **   ##     ##  ##   ##  ##   #####  ##  ##   ####   ##    #####    #####    **
 **   ##     ##  ##   ##  ##  ##      ## ##   ##      ##   ##   ##  ##   ##   **
 **   ##  ## ##  ##   ##  ##  ##      ####     ###    ##   ######   ######    **
 **    ##  ###   ##   ##  ##  ##      ## ##      ##   ##   ##       ##        **
 **     #######   #####   ##   #####  ##  ##  ####    ##    #####   ##        **
 **           ##                                                    ##        **
 **                                                                           **
 **                                                ... make the atoms dance   **
 **                                                                           **
 **            Copyright (C) by CP2K developers group (2000-2024)             **
 **                      J. Chem. Phys. 152, 194103 (2020)                    **
 **                                                                           **
 *******************************************************************************


 TOTAL NUMBERS AND MAXIMUM NUMBERS

  Total number of            - Atomic kinds:                                   6
                             - Atoms:                                        409
                             - Shell sets:                                   409
                             - Shells:                                      3617
                             - Primitive Cartesian functions:               2053
                             - Cartesian basis functions:                  13634
                             - Spherical basis functions:                  11621

  Maximum angular momentum of- Orbital basis functions:                        3
                             - Local part of the GTH pseudopotential:          2
                             - Non-local part of the GTH pseudopotential:      4

  AUX_FIT ADMM-Basis: 
  Total number of            - Shell sets:                                  2799
                             - Shells:                                      2799
                             - Primitive Cartesian functions:               3609
                             - Cartesian basis functions:                   7546
                             - Spherical basis functions:                   6985
                               Maximum angular momentum                        3


 SCF PARAMETERS         Density guess:                                   RESTART
                        --------------------------------------------------------
                        max_scf:                                              10
                        max_scf_history:                                       0
                        max_diis:                                              4
                        --------------------------------------------------------
                        eps_scf:                                        1.00E-06
                        eps_scf_history:                                0.00E+00
                        eps_diis:                                       1.00E-01
                        eps_eigval:                                     1.00E-05
                        --------------------------------------------------------
                        level_shift [a.u.]:                             0.000000
                        --------------------------------------------------------
                        Outer loop SCF in use 
                        No variables optimised in outer loop
                        eps_scf                                         1.00E-06
                        max_scf                                               10
                        No outer loop optimization
                        step_size                                       5.00E-01

 Number of electrons:                                                       2056
 Number of occupied orbitals:                                               1028
 Number of molecular orbitals:                                              1028

 Number of orbital functions:                                              11621
 Number of independent orbital functions:                                  11621

 Extrapolation method: initial_guess

 *** WARNING in qs_initial_guess.F:306 :: User requested to restart the   ***
 *** wavefunction from the file named: Replica_43-RESTART.wfn. This file  ***
 *** does not exist. Please check the existence of the file or change     ***
 *** properly the value of the keyword WFN_RESTART_FILE_NAME. Calculation ***
 *** continues using ATOMIC GUESS.                                        ***



 SCF WAVEFUNCTION OPTIMIZATION

  ----------------------------------- OT ---------------------------------------
  Minimizer      : DIIS                : direct inversion
                                         in the iterative subspace
                                         using   7 DIIS vectors
                                         safer DIIS on
  Preconditioner : FULL_SINGLE_INVERSE : inversion of 
                                         H + eS - 2*(Sc)(c^T*H*c+const)(Sc)^T
  Precond_solver : DEFAULT
  stepsize       :    0.08000000                  energy_gap     :    0.08000000
  eps_taylor     :   0.10000E-15                  max_taylor     :             4
  ----------------------------------- OT ---------------------------------------

  Step     Update method      Time    Convergence         Total energy    Change
  ------------------------------------------------------------------------------
     1 OT DIIS     0.80E-01    6.9     0.01132906     -5012.0089428544 -5.01E+03
     2 OT DIIS     0.80E-01    5.3     0.00699495     -5086.4599627698 -7.45E+01
     3 OT DIIS     0.80E-01    5.4     0.00651718     -5122.1942582611 -3.57E+01
     4 OT DIIS     0.80E-01    5.3     0.00621159     -5141.0533835103 -1.89E+01
     5 OT DIIS     0.80E-01    5.3     0.00343074     -5177.4615485349 -3.64E+01
     6 OT DIIS     0.80E-01    5.3     0.00257588     -5189.5454844139 -1.21E+01
     7 OT DIIS     0.80E-01    5.3     0.00194455     -5197.1763245855 -7.63E+00
     8 OT DIIS     0.80E-01    5.4     0.00129614     -5204.1070529318 -6.93E+00
     9 OT DIIS     0.80E-01    5.3     0.00104752     -5206.8132107631 -2.71E+00
    10 OT DIIS     0.80E-01    5.3     0.00074024     -5209.5494359668 -2.74E+00

  Leaving inner SCF loop after reaching    10 steps.


  Electronic density on regular grids:      -2055.9999999669        0.0000000331
  Core density on regular grids:             2055.9999998531       -0.0000001469
  Total charge density on r-space grids:       -0.0000001138
  Total charge density g-space grids:          -0.0000001138

  Overlap energy of the core charge distribution:               0.00004699072091
  Self energy of the core charge distribution:              -9860.83173999830615
  Core Hamiltonian energy:                                   2923.78733349306549
  Hartree energy:                                            2791.19345378415665
  Exchange-correlation energy:                              -1063.69853023642736

  Total energy:                                             -5209.54943596679095

  outer SCF iter =    1 RMS gradient =   0.74E-03 energy =      -5209.5494359668

  ----------------------------------- OT ---------------------------------------
  Minimizer      : DIIS                : direct inversion
                                         in the iterative subspace
                                         using   7 DIIS vectors
                                         safer DIIS on
  Preconditioner : FULL_SINGLE_INVERSE : inversion of 
                                         H + eS - 2*(Sc)(c^T*H*c+const)(Sc)^T
  Precond_solver : DEFAULT
  stepsize       :    0.08000000                  energy_gap     :    0.08000000
  eps_taylor     :   0.10000E-15                  max_taylor     :             4
  ----------------------------------- OT ---------------------------------------

  Step     Update method      Time    Convergence         Total energy    Change
  ------------------------------------------------------------------------------
     1 OT DIIS     0.80E-01   13.5     0.00118841     -5210.6493399848 -1.10E+00
     2 OT DIIS     0.80E-01    5.3     0.00102278     -5211.8969579989 -1.25E+00
     3 OT DIIS     0.80E-01    5.3     0.00060664     -5213.7651198074 -1.87E+00
     4 OT DIIS     0.80E-01    5.3     0.00049132     -5214.1899406711 -4.25E-01
     5 OT DIIS     0.80E-01    5.3     0.00039006     -5214.3639920977 -1.74E-01
     6 OT DIIS     0.80E-01    5.3     0.00027527     -5214.5107561569 -1.47E-01
     7 OT DIIS     0.80E-01    5.3     0.00023127     -5214.5758958047 -6.51E-02
     8 OT DIIS     0.80E-01    5.3     0.00021956     -5214.6078026232 -3.19E-02
     9 OT DIIS     0.80E-01    5.4     0.00020132     -5214.6472482097 -3.94E-02
    10 OT DIIS     0.80E-01    5.3     0.00013753     -5214.7074018910 -6.02E-02

  Leaving inner SCF loop after reaching    10 steps.


  Electronic density on regular grids:      -2055.9999999669        0.0000000331
  Core density on regular grids:             2055.9999998531       -0.0000001469
  Total charge density on r-space grids:       -0.0000001138
  Total charge density g-space grids:          -0.0000001138

  Overlap energy of the core charge distribution:               0.00004699072091
  Self energy of the core charge distribution:              -9860.83173999830615
  Core Hamiltonian energy:                                   2918.76270891731019
  Hartree energy:                                            2791.77416430298490
  Exchange-correlation energy:                              -1064.41258210375736

  Total energy:                                             -5214.70740189104799

  outer SCF iter =    2 RMS gradient =   0.14E-03 energy =      -5214.7074018910

  ----------------------------------- OT ---------------------------------------
  Minimizer      : DIIS                : direct inversion
                                         in the iterative subspace
                                         using   7 DIIS vectors
                                         safer DIIS on
  Preconditioner : FULL_SINGLE_INVERSE : inversion of 
                                         H + eS - 2*(Sc)(c^T*H*c+const)(Sc)^T
  Precond_solver : DEFAULT
  stepsize       :    0.08000000                  energy_gap     :    0.08000000
  eps_taylor     :   0.10000E-15                  max_taylor     :             4
  ----------------------------------- OT ---------------------------------------

  Step     Update method      Time    Convergence         Total energy    Change
  ------------------------------------------------------------------------------
     1 OT DIIS     0.80E-01   13.4     0.00017824     -5214.7213211026 -1.39E-02
     2 OT DIIS     0.80E-01    5.2     0.00014809     -5214.7446360256 -2.33E-02
     3 OT DIIS     0.80E-01    5.2     0.00014146     -5214.7535951250 -8.96E-03
     4 OT DIIS     0.80E-01    5.2     0.00007323     -5214.7673134962 -1.37E-02
     5 OT DIIS     0.80E-01    5.2     0.00002792     -5214.7687925787 -1.48E-03
     6 OT DIIS     0.80E-01    5.2     0.00001294     -5214.7689625488 -1.70E-04
     7 OT DIIS     0.80E-01    5.2     0.00000771     -5214.7690192074 -5.67E-05
     8 OT DIIS     0.80E-01    5.2     0.00000441     -5214.7690501964 -3.10E-05
     9 OT DIIS     0.80E-01    5.2     0.00000252     -5214.7690614252 -1.12E-05
    10 OT DIIS     0.80E-01    5.2     0.00000152     -5214.7690638644 -2.44E-06

  Leaving inner SCF loop after reaching    10 steps.


  Electronic density on regular grids:      -2056.0000258109       -0.0000258109
  Core density on regular grids:             2055.9999998531       -0.0000001469
  Total charge density on r-space grids:       -0.0000259578
  Total charge density g-space grids:          -0.0000259578

  Overlap energy of the core charge distribution:               0.00004699072091
  Self energy of the core charge distribution:              -9860.83173999830615
  Core Hamiltonian energy:                                   2918.66386308511210
  Hartree energy:                                            2791.80923267441267
  Exchange-correlation energy:                              -1064.41046661630571

  Total energy:                                             -5214.76906386436622

  outer SCF iter =    3 RMS gradient =   0.15E-05 energy =      -5214.7690638644

  ----------------------------------- OT ---------------------------------------
  Minimizer      : DIIS                : direct inversion
                                         in the iterative subspace
                                         using   7 DIIS vectors
                                         safer DIIS on
  Preconditioner : FULL_SINGLE_INVERSE : inversion of 
                                         H + eS - 2*(Sc)(c^T*H*c+const)(Sc)^T
  Precond_solver : DEFAULT
  stepsize       :    0.08000000                  energy_gap     :    0.08000000
  eps_taylor     :   0.10000E-15                  max_taylor     :             4
  ----------------------------------- OT ---------------------------------------

  Step     Update method      Time    Convergence         Total energy    Change
  ------------------------------------------------------------------------------
     1 OT DIIS     0.80E-01   12.8     0.00000078     -5214.7690647228 -8.58E-07

  *** SCF run converged in     1 steps ***


  Electronic density on regular grids:      -2056.0000257187       -0.0000257187
  Core density on regular grids:             2055.9999998531       -0.0000001469
  Total charge density on r-space grids:       -0.0000258657
  Total charge density g-space grids:          -0.0000258657

  Overlap energy of the core charge distribution:               0.00004699072091
  Self energy of the core charge distribution:              -9860.83173999830615
  Core Hamiltonian energy:                                   2918.66425854517729
  Hartree energy:                                            2791.80888072331163
  Exchange-correlation energy:                              -1064.41051098365324

  Total energy:                                             -5214.76906472275004

  outer SCF iter =    4 RMS gradient =   0.78E-06 energy =      -5214.7690647228
  outer SCF loop converged in   4 iterations or   31 steps


 ENERGY| Total FORCE_EVAL ( QS ) energy [a.u.]:            -5214.769064722750045

 -------------------------------------------------------------------------------
 -                                                                             -
 -                                DBCSR STATISTICS                             -
 -                                                                             -
 -------------------------------------------------------------------------------
 COUNTER                                    TOTAL       BLAS       SMM       ACC
 flops    14 x     4 x     4               172032       0.0%    100.0%      0.0%     
 flops     4 x     4 x   976               249856       0.0%    100.0%      0.0%     
 flops    41 x     4 x     4               419840       0.0%    100.0%      0.0%     
 flops     4 x     4 x   974               498688       0.0%    100.0%      0.0%     
 flops     4 x     4 x   962               615680       0.0%    100.0%      0.0%     
 flops    29 x     4 x     4              2383104       0.0%    100.0%      0.0%     
 flops    14 x    32 x     4             22020096       0.0%    100.0%      0.0%     
 flops    14 x     4 x    32             22020096       0.0%    100.0%      0.0%     
 flops    32 x     4 x   976             31981568       0.0%    100.0%      0.0%     
 flops     4 x    32 x   976             31981568       0.0%    100.0%      0.0%     
 flops    41 x    32 x     4             53739520       0.0%    100.0%      0.0%     
 flops    41 x     4 x    32             53739520       0.0%    100.0%      0.0%     
 flops    32 x     4 x   974             63832064       0.0%    100.0%      0.0%     
 flops     4 x    32 x   974             63832064       0.0%    100.0%      0.0%     
 flops    32 x     4 x   962             78807040       0.0%    100.0%      0.0%     
 flops     4 x    32 x   962             78807040       0.0%    100.0%      0.0%     
 flops    14 x     4 x    14            120422400       0.0%    100.0%      0.0%     
 flops    68 x    68 x    68            141494400       0.0%    100.0%      0.0%     
 flops    29 x    32 x     4            305037312       0.0%    100.0%      0.0%     
 flops    29 x     4 x    32            305037312       0.0%    100.0%      0.0%     
 flops    64 x    68 x    68            399513600       0.0%    100.0%      0.0%     
 flops    68 x    64 x    68            399513600       0.0%    100.0%      0.0%     
 flops    68 x    68 x    64            399513600       0.0%    100.0%      0.0%     
 flops    41 x    14 x    68            419672064       0.0%    100.0%      0.0%     
 flops    14 x    14 x    68            555297792       0.0%    100.0%      0.0%     
 flops    41 x     4 x    14            564264960       0.0%    100.0%      0.0%     
 flops    14 x     4 x    41            564264960       0.0%    100.0%      0.0%     
 flops    64 x    64 x    68           1128038400       0.0%    100.0%      0.0%     
 flops    64 x    68 x    64           1128038400       0.0%    100.0%      0.0%     
 flops    68 x    64 x    64           1128038400       0.0%    100.0%      0.0%     
 flops    41 x    14 x    64           1184956416       0.0%    100.0%      0.0%     
 flops   963 x    68 x    68           1309156128       0.0%    100.0%      0.0%     
 flops    14 x    14 x    64           1567899648       0.0%    100.0%      0.0%     
 flops    68 x    68 x    96           1598054400       0.0%    100.0%      0.0%     
 flops    68 x    96 x    68           1598054400       0.0%    100.0%      0.0%     
 flops    96 x    68 x    68           1598054400       0.0%    100.0%      0.0%     
 flops    41 x     4 x    41           1712737280       0.0%    100.0%      0.0%     
 flops    14 x     4 x    29           1872926720       0.0%    100.0%      0.0%     
 flops    29 x     4 x    14           1872926720       0.0%    100.0%      0.0%     
 flops    68 x    68 x   976           2166251520       0.0%    100.0%      0.0%     
 flops   976 x    68 x    68           2653658112       0.0%    100.0%      0.0%     
 flops    64 x    64 x    64           3185049600       0.0%    100.0%      0.0%     
 flops   963 x    64 x    68           3696440832       0.0%    100.0%      0.0%     
 flops   963 x    68 x    64           3696440832       0.0%    100.0%      0.0%     
 flops    14 x    41 x    68           4016861184       0.0%    100.0%      0.0%     
 flops    68 x    68 x   974           4323624960       0.0%    100.0%      0.0%     
 flops    64 x    68 x    96           4512153600       0.0%    100.0%      0.0%     
 flops    64 x    96 x    68           4512153600       0.0%    100.0%      0.0%     
 flops    68 x    64 x    96           4512153600       0.0%    100.0%      0.0%     
 flops    68 x    96 x    64           4512153600       0.0%    100.0%      0.0%     
 flops    96 x    64 x    68           4512153600       0.0%    100.0%      0.0%     
 flops    96 x    68 x    64           4512153600       0.0%    100.0%      0.0%     
 flops    41 x    14 x    96           4739825664       0.0%    100.0%      0.0%     
 flops   974 x    68 x    68           5296440576       0.0%    100.0%      0.0%     
 flops    68 x    68 x   962           5337945600       0.0%    100.0%      0.0%     
 flops    14 x    32 x    32           5813305344       0.0%    100.0%      0.0%     
 flops    64 x    68 x   976           6116474880       0.0%    100.0%      0.0%     
 flops    68 x    64 x   976           6116474880       0.0%    100.0%      0.0%     
 flops    14 x    14 x    96           6271598592       0.0%    100.0%      0.0%     
 flops   962 x    68 x    68           6538983360       0.0%    100.0%      0.0%     
 flops    41 x    41 x    68           6719481472       0.0%    100.0%      0.0%     
 flops    14 x    29 x    68           6917460480       0.0%    100.0%      0.0%     
 flops   976 x    64 x    68           7492681728       0.0%    100.0%      0.0%     
 flops   976 x    68 x    64           7492681728       0.0%    100.0%      0.0%     
 flops    32 x    32 x   976           8443133952       0.0%    100.0%      0.0%     
 flops   963 x    68 x   976           8947733760       0.0%    100.0%      0.0%     
 flops    41 x     4 x    29           9108691200       0.0%    100.0%      0.0%     
 flops    29 x     4 x    41           9108691200       0.0%    100.0%      0.0%     
 flops    29 x    14 x    68           9221513728       0.0%    100.0%      0.0%     
 flops   963 x    64 x    64          10437009408       0.0%    100.0%      0.0%     
 flops    14 x    41 x    64          11341725696       0.0%    100.0%      0.0%     
 flops    64 x    68 x   974          12207882240       0.0%    100.0%      0.0%     
 flops    68 x    64 x   974          12207882240       0.0%    100.0%      0.0%     
 flops    64 x    64 x    96          12740198400       0.0%    100.0%      0.0%     
 flops    64 x    96 x    64          12740198400       0.0%    100.0%      0.0%     
 flops    96 x    64 x    64          12740198400       0.0%    100.0%      0.0%     
 flops    41 x    32 x    32          14187233280       0.0%    100.0%      0.0%     
 flops   963 x    68 x    96          14785763328       0.0%    100.0%      0.0%     
 flops   963 x    96 x    68          14785763328       0.0%    100.0%      0.0%     
 flops   974 x    64 x    68          14954655744       0.0%    100.0%      0.0%     
 flops   974 x    68 x    64          14954655744       0.0%    100.0%      0.0%     
 flops    64 x    68 x   962          15071846400       0.0%    100.0%      0.0%     
 flops    68 x    64 x   962          15071846400       0.0%    100.0%      0.0%     
 flops    32 x    32 x   974          16851664896       0.0%    100.0%      0.0%     
 flops    64 x    64 x   976          17270046720       0.0%    100.0%      0.0%     
 flops   963 x    68 x   974          17858796480       0.0%    100.0%      0.0%     
 flops    96 x    96 x    68          18048614400       0.0%    100.0%      0.0%     
 flops    68 x    96 x    96          18048614400       0.0%    100.0%      0.0%     
 flops    96 x    68 x    96          18048614400       0.0%    100.0%      0.0%     
 flops   976 x    68 x   976          18137047040       0.0%    100.0%      0.0%     
 flops   962 x    64 x    68          18463011840       0.0%    100.0%      0.0%     
 flops   962 x    68 x    64          18463011840       0.0%    100.0%      0.0%     
 flops    41 x    41 x    64          18972653568       0.0%    100.0%      0.0%     
 flops    14 x    29 x    64          19531653120       0.0%    100.0%      0.0%     
 flops    32 x    32 x   962          20805058560       0.0%    100.0%      0.0%     
 flops   976 x    64 x    64          21155807232       0.0%    100.0%      0.0%     
 flops   963 x    68 x   962          22048462800       0.0%    100.0%      0.0%     
 flops    68 x    96 x   976          24465899520       0.0%    100.0%      0.0%     
 flops    96 x    68 x   976          24465899520       0.0%    100.0%      0.0%     
 flops   963 x    64 x   976          25264189440       0.0%    100.0%      0.0%     
 flops    29 x    14 x    64          26037215232       0.0%    100.0%      0.0%     
 flops    29 x    41 x    68          29906184576       0.0%    100.0%      0.0%     
 flops   976 x    68 x    96          29970726912       0.0%    100.0%      0.0%     
 flops   976 x    96 x    68          29970726912       0.0%    100.0%      0.0%     
 flops    14 x    32 x    14          30828134400       0.0%    100.0%      0.0%     
 flops    29 x     4 x    29          32570517120       0.0%    100.0%      0.0%     
 flops    64 x    64 x   974          34469314560       0.0%    100.0%      0.0%     
 flops   976 x    68 x   974          36199761920       0.0%    100.0%      0.0%     
 flops   974 x    68 x   976          36199761920       0.0%    100.0%      0.0%     
 flops    41 x    29 x    68          40338033024       0.0%    100.0%      0.0%     
 flops   963 x    64 x    96          41748037632       0.0%    100.0%      0.0%     
 flops   963 x    96 x    64          41748037632       0.0%    100.0%      0.0%     
 flops   974 x    64 x    64          42224910336       0.0%    100.0%      0.0%     
 flops    64 x    64 x   962          42555801600       0.0%    100.0%      0.0%     
 flops   976 x    68 x   962          44692211200       0.0%    100.0%      0.0%     
 flops   962 x    68 x   976          44692211200       0.0%    100.0%      0.0%     
 flops    14 x    41 x    96          45366902784       0.0%    100.0%      0.0%     
 flops    68 x    96 x   974          48831528960       0.0%    100.0%      0.0%     
 flops    96 x    68 x   974          48831528960       0.0%    100.0%      0.0%     
 flops   963 x    64 x   974          50424837120       0.0%    100.0%      0.0%     
 flops    96 x    96 x    64          50960793600       0.0%    100.0%      0.0%     
 flops    64 x    96 x    96          50960793600       0.0%    100.0%      0.0%     
 flops    96 x    64 x    96          50960793600       0.0%    100.0%      0.0%     
 flops   976 x    64 x   976          51210485760       0.0%    100.0%      0.0%     
 flops   962 x    64 x    64          52130856960       0.0%    100.0%      0.0%     
 flops   974 x    96 x    68          59818622976       0.0%    100.0%      0.0%     
 flops   974 x    68 x    96          59818622976       0.0%    100.0%      0.0%     
 flops    68 x    96 x   962          60287385600       0.0%    100.0%      0.0%     
 flops    96 x    68 x   962          60287385600       0.0%    100.0%      0.0%     
 flops   963 x    64 x   962          62254483200       0.0%    100.0%      0.0%     
 flops    64 x    96 x   976          69080186880       0.0%    100.0%      0.0%     
 flops    96 x    64 x   976          69080186880       0.0%    100.0%      0.0%     
 flops   974 x    68 x   974          72251164160       0.0%    100.0%      0.0%     
 flops   962 x    68 x    96          73852047360       0.0%    100.0%      0.0%     
 flops   962 x    96 x    68          73852047360       0.0%    100.0%      0.0%     
 flops    41 x    41 x    96          75890614272       0.0%    100.0%      0.0%     
 flops    14 x    29 x    96          78126612480       0.0%    100.0%      0.0%     
 flops    29 x    32 x    32          80529850368       0.0%    100.0%      0.0%     
 flops    29 x    41 x    64          84440991744       0.0%    100.0%      0.0%     
 flops   976 x    64 x    96          84623228928       0.0%    100.0%      0.0%     
 flops   976 x    96 x    64          84623228928       0.0%    100.0%      0.0%     
 flops   962 x    68 x   974          89201257600       0.0%    100.0%      0.0%     
 flops   974 x    68 x   962          89201257600       0.0%    100.0%      0.0%     
 flops   963 x    96 x   976         101056757760       0.0%    100.0%      0.0%     
 flops   976 x    64 x   974         102211092480       0.0%    100.0%      0.0%     
 flops   974 x    64 x   976         102211092480       0.0%    100.0%      0.0%     
 flops    29 x    14 x    96         104148860928       0.0%    100.0%      0.0%     
 flops   962 x    68 x   962         110127836000       0.0%    100.0%      0.0%     
 flops    41 x    29 x    64         113895622656       0.0%    100.0%      0.0%     
 flops   976 x    64 x   962         126189772800       0.0%    100.0%      0.0%     
 flops   962 x    64 x   976         126189772800       0.0%    100.0%      0.0%     
 flops    29 x    29 x    68         134971457568       0.0%    100.0%      0.0%     
 flops    64 x    96 x   974         137877258240       0.0%    100.0%      0.0%     
 flops    96 x    64 x   974         137877258240       0.0%    100.0%      0.0%     
 flops    41 x    32 x    14         144451829760       0.0%    100.0%      0.0%     
 flops    14 x    32 x    41         144451829760       0.0%    100.0%      0.0%     
 flops   963 x    96 x    96         166992150528       0.0%    100.0%      0.0%     
 flops   974 x    96 x    64         168899641344       0.0%    100.0%      0.0%     
 flops   974 x    64 x    96         168899641344       0.0%    100.0%      0.0%     
 flops    64 x    96 x   962         170223206400       0.0%    100.0%      0.0%     
 flops    96 x    64 x   962         170223206400       0.0%    100.0%      0.0%     
 flops   963 x    96 x   974         201699348480       0.0%    100.0%      0.0%     
 flops    96 x    96 x    96         203843174400       0.0%    100.0%      0.0%     
 flops   974 x    64 x   974         204003287040       0.0%    100.0%      0.0%     
 flops   976 x    96 x   976         204841943040       0.0%    100.0%      0.0%     
 flops   962 x    64 x    96         208523427840       0.0%    100.0%      0.0%     
 flops   962 x    96 x    64         208523427840       0.0%    100.0%      0.0%     
 flops   963 x    96 x   962         249017932800       0.0%    100.0%      0.0%     
 flops   962 x    64 x   974         251862374400       0.0%    100.0%      0.0%     
 flops   974 x    64 x   962         251862374400       0.0%    100.0%      0.0%     
 flops    96 x    96 x   976         276320747520       0.0%    100.0%      0.0%     
 flops   962 x    64 x   962         310949184000       0.0%    100.0%      0.0%     
 flops    29 x    41 x    96         337763966976       0.0%    100.0%      0.0%     
 flops   976 x    96 x    96         338492915712       0.0%    100.0%      0.0%     
 flops    29 x    29 x    64         381095880192       0.0%    100.0%      0.0%     
 flops   974 x    96 x   976         408844369920       0.0%    100.0%      0.0%     
 flops   976 x    96 x   974         408844369920       0.0%    100.0%      0.0%     
 flops    41 x    32 x    41         438460743680       0.0%    100.0%      0.0%     
 flops    41 x    29 x    96         455582490624       0.0%    100.0%      0.0%     
 flops    14 x    32 x    29         479469240320       0.0%    100.0%      0.0%     
 flops    29 x    32 x    14         479469240320       0.0%    100.0%      0.0%     
 flops   976 x    96 x   962         504759091200       0.0%    100.0%      0.0%     
 flops   962 x    96 x   976         504759091200       0.0%    100.0%      0.0%     
 flops    96 x    96 x   974         551509032960       0.0%    100.0%      0.0%     
 flops   974 x    96 x    96         675598565376       0.0%    100.0%      0.0%     
 flops    96 x    96 x   962         680892825600       0.0%    100.0%      0.0%     
 flops   974 x    96 x   974         816013148160       0.0%    100.0%      0.0%     
 flops   962 x    96 x    96         834093711360       0.0%    100.0%      0.0%     
 flops   974 x    96 x   962        1007449497600       0.0%    100.0%      0.0%     
 flops   962 x    96 x   974        1007449497600       0.0%    100.0%      0.0%     
 flops   962 x    96 x   962        1243796736000       0.0%    100.0%      0.0%     
 flops    29 x    29 x    96        1524383520768       0.0%    100.0%      0.0%     
 flops    41 x    32 x    29        2331824947200       0.0%    100.0%      0.0%     
 flops    29 x    32 x    41        2331824947200       0.0%    100.0%      0.0%     
 flops    29 x    32 x    29        8338052382720       0.0%    100.0%      0.0%     
 flops inhomo. stacks               1068203727232     100.0%      0.0%      0.0%
 flops total                        35.231027E+12       3.0%     97.0%      0.0%
 flops max/rank                    281.517000E+09       3.1%     96.9%      0.0%
 matmuls inhomo. stacks                     24564     100.0%      0.0%      0.0%
 matmuls total                          302800440       0.0%    100.0%      0.0%
 number of processed stacks               2899676       0.8%     99.2%      0.0%
 average stack size                                     1.1     105.2       0.0
 marketing flops                    49.366161E+12
 -------------------------------------------------------------------------------
 # multiplications                            659
 max memory usage/rank             601.161728E+06
 # max total images/rank                        1
 # max 3D layers                                1
 # MPI messages exchanged                 2087712
 MPI messages size (bytes):
  total size                         1.724551E+12
  min size                           0.000000E+00
  max size                           7.620608E+06
  average size                     826.048312E+03
 MPI breakdown and total messages size (bytes):
             size <=      128               18480                        0
       128 < size <=     8192                   0                        0
      8192 < size <=    32768               60027               1961203200
     32768 < size <=   131072              892485              53941528960
    131072 < size <=  4194304              934560             620256464960
   4194304 < size <= 16777216              182160            1048396602440
  16777216 < size                               0                        0
 -------------------------------------------------------------------------------
 -                                                                             -
 -                      DBCSR MESSAGE PASSING PERFORMANCE                      -
 -                                                                             -
 -------------------------------------------------------------------------------
 ROUTINE             CALLS      AVE VOLUME [Bytes]
 MP_Bcast              196                     12.
 MP_Allreduce         3876                     29.
 MP_Alltoall          2453                 179736.
 MP_ISend            31616                 390427.
 MP_IRecv            31616                 388006.
 -------------------------------------------------------------------------------

 -------------------------------------------------------------------------------
 -                                                                             -
 -                                DBM STATISTICS                               -
 -                                                                             -
 -------------------------------------------------------------------------------
    M  x    N  x    K                                          COUNT     PERCENT
 -------------------------------------------------------------------------------

 -------------------------------------------------------------------------------
 -                                                                             -
 -                                GRID STATISTICS                              -
 -                                                                             -
 -------------------------------------------------------------------------------
 LP    KERNEL             BACKEND                              COUNT     PERCENT
 6     collocate ortho    CPU                                8535968      21.54%
 8     collocate ortho    CPU                                8437664      21.29%
 6     integrate ortho    CPU                                8269219      20.87%
 8     integrate ortho    CPU                                8173987      20.63%
 5     collocate ortho    CPU                                1513696       3.82%
 7     collocate ortho    CPU                                1513696       3.82%
 5     integrate ortho    CPU                                1466393       3.70%
 7     integrate ortho    CPU                                1466393       3.70%
 4     collocate ortho    CPU                                  98304       0.25%
 4     integrate ortho    CPU                                  95232       0.24%
 0     collocate general  CPU                                  58896       0.15%
 -------------------------------------------------------------------------------

 MEMORY| Estimated peak process memory [MiB]                                 574

 -------------------------------------------------------------------------------
 -                                                                             -
 -                         MESSAGE PASSING PERFORMANCE                         -
 -                                                                             -
 -------------------------------------------------------------------------------

 ROUTINE             CALLS      AVE VOLUME [Bytes]
 MP_Group                4
 MP_Bcast             3945                3795611.
 MP_Allreduce         9031                   2854.
 MP_Sync                24
 MP_Alltoall          1084               18207618.
 MP_SendRecv         18304                  98624.
 MP_ISendRecv        17732                  98624.
 MP_Wait             29370
 MP_comm_split          20
 MP_ISend            10626                 576206.
 MP_IRecv            10626                 576235.
 -------------------------------------------------------------------------------


 -------------------------------------------------------------------------------
 -                                                                             -
 -                           R E F E R E N C E S                               -
 -                                                                             -
 -------------------------------------------------------------------------------
 
 CP2K version 2024.2 (Development Version), the CP2K developers group (2024).
 CP2K is freely available from https://www.cp2k.org/ .
 
 T. D. Kuehne, M. Iannuzzi, M. Del Ben, V. V. Rybkin, P. Seewald, F. Stein, T. 
 Laino, R. Z. Khaliullin, O. Schuett, F. Schiffmann, D. Golze, J. Wilhelm, S. 
 Chulkov, M. H. Bani-Hashemian, V. Weber, U. Borstnik, M. Taillefumier, A. S. 
 Jakobovits, A. Lazzaro, H. Pabst, T. Mueller, R. Schade, M. Guidon, S. 
 Andermatt, N. Holmberg, G. K. Schenter, A. Hehn, A. Bussy, F. Belleflamme, G. 
 Tabacchi, A. Gloess, M. Lass, I. Bethune, C. J. Mundy, C. Plessl, M. Watkins, 
 J. VandeVondele, M. Krack, J. Hutter.
 J. Chem. Phys. 152, 194103 (2020).
 CP2K: An electronic structure and molecular dynamics software package - 
 Quickstep: Efficient and accurate electronic structure calculations.
 https://doi.org/10.1063/5.0007045

 S. Lehtola, C. Steigemann, M. J. T. Oliveira, M. A. L. Marques.
 SoftwareX 7, 1-5 (2018).
 Recent developments in libxc - A comprehensive library of functionals for 
 density functional theory.
 https://doi.org/10.1016/j.softx.2017.11.002

 O. Schuett, P. Messmer, J. Hutter, J. VandeVondele.
 Electronic Structure Calculations on Graphics Processing Units, 173-190 (2016).
 GPU-Accelerated Sparse Matrix-Matrix Multiplication for Linear Scaling Density 
 Functional Theory.
 https://doi.org/10.1002/9781118670712.ch8

 A. Heinecke, G. Henry, M. Hutchinson, H. Pabst.
 Proceedings of Intl. Supercomputing Conference, 981-991 (2016).
 LIBXSMM: Accelerating Small Matrix Multiplications by Runtime Code Generation.
 https://doi.org/10.1109/SC.2016.83

 J. Hutter, M. Iannuzzi, F. Schiffmann, J. VandeVondele.
 WIREs Comput Mol Sci. 4, 15-25 (2014).
 CP2K: atomistic simulations of condensed matter systems.
 https://doi.org/10.1002/wcms.1159

 U. Borstnik, J. VandeVondele, V. Weber, J. Hutter.
 Parallel Comput. 40, 47-58 (2014).
 Sparse matrix multiplication: The distributed block-compressed sparse row 
 library.
 https://doi.org/10.1016/j.parco.2014.03.012

 M. A. L. Marques, M. J. T. Oliveira, T. Burnus.
 Comput. Phys. Commun. 183, 2272-2281 (2012).
 LIBXC: A library of exchange and correlation functionals for density functional 
 theory.
 https://doi.org/10.1016/j.cpc.2012.05.007

 J. VandeVondele, J. Hutter.
 J. Chem. Phys. 127, 114105 (2007).
 Gaussian basis sets for accurate calculations on molecular systems in gas and 
 condensed phases.
 https://doi.org/10.1063/1.2770708

 J. VandeVondele, M. Krack, F. Mohamed, M. Parrinello, T. Chassaing, J. Hutter.
 Comput. Phys. Commun. 167, 103-128 (2005).
 QUICKSTEP: Fast and accurate density functional calculations using a mixed 
 Gaussian and plane waves approach.
 https://doi.org/10.1016/j.cpc.2004.12.014

 M. Krack.
 Theor. Chem. Acc. 114, 145-152 (2005).
 Pseudopotentials for H to Kr optimized for gradient-corrected 
 exchange-correlation functionals.
 https://doi.org/10.1007/s00214-005-0655-y

 M. Frigo, S. G. Johnson.
 Proc. IEEE 93, 216-231 (2005).
 The design and implementation of FFTW3.
 https://doi.org/10.1109/JPROC.2004.840301

 J. VandeVondele, J. Hutter.
 J. Chem. Phys. 118, 4365-4369 (2003).
 An efficient orbital transformation method for electronic structure 
 calculations.
 https://doi.org/10.1063/1.1543154

 C. Hartwigsen, S. Goedecker, J. Hutter.
 Phys. Rev. B 58, 3641-3662 (1998).
 Relativistic separable dual-space Gaussian pseudopotentials from H to Rn.
 https://doi.org/10.1103/PhysRevB.58.3641

 G. Lippert, J. Hutter, M. Parrinello.
 Mol. Phys. 92, 477-487 (1997).
 A hybrid Gaussian and plane wave density functional scheme.
 https://doi.org/10.1080/002689797170220

 S. Goedecker, M. Teter, J. Hutter.
 Phys. Rev. B 54, 1703-1710 (1996).
 Separable dual-space Gaussian pseudopotentials.
 https://doi.org/10.1103/PhysRevB.54.1703


 -------------------------------------------------------------------------------
 -                                                                             -
 -                                T I M I N G                                  -
 -                                                                             -
 -------------------------------------------------------------------------------
 SUBROUTINE                       CALLS  ASD         SELF TIME        TOTAL TIME
                                MAXIMUM       AVERAGE  MAXIMUM  AVERAGE  MAXIMUM
 CP2K                                 1  1.0    0.016    0.038  179.562  179.562
 qs_energies                          1  2.0    0.006    0.008  177.854  177.856
 scf_env_do_scf                       1  3.0    0.000    0.000  175.109  175.110
 scf_env_do_scf_inner_loop           31  4.0    0.001    0.006  151.708  151.971
 qs_ks_update_qs_env                 35  5.0    0.000    0.000   97.220   97.400
 rebuild_ks_matrix                   31  6.0    0.000    0.000   97.148   97.331
 qs_ks_build_kohn_sham_matrix        31  7.0    0.005    0.006   97.148   97.331
 sum_up_and_integrate                31  8.0    0.001    0.002   49.620   49.625
 qs_rho_update_rho_low               32  5.0    0.000    0.000   49.533   49.578
 calculate_rho_elec                  64  6.0    0.144    0.153   49.533   49.577
 integrate_v_rspace                  62  9.0    0.003    0.003   49.420   49.427
 fft_wrap_pw1pw2                    817  9.9    0.017    0.026   39.424   40.679
 qs_vxc_create                       31  8.0    0.001    0.001   39.173   39.202
 xc_vxc_pw_create                    31  9.0    0.289    0.346   39.172   39.201
 fft_wrap_pw1pw2_500                439 11.3    1.676    1.716   37.291   38.545
 fft3d_ps                           817 11.9   14.409   14.780   30.320   31.844
 grid_integrate_task_list            62 10.0   29.701   31.245   29.701   31.245
 grid_collocate_task_list            64  7.0   26.304   28.181   26.304   28.181
 xc_rho_set_and_dset_create          31 10.0    0.294    0.347   26.005   26.406
 density_rs2pw                       64  7.0    0.005    0.005   22.531   23.819
 init_scf_loop                        4  4.0    0.000    0.000   23.266   23.277
 dbcsr_multiply_generic             659  9.9    0.037    0.040   20.971   21.398
 xc_pw_derive                       186 11.0    0.004    0.005   18.419   19.717
 qs_scf_new_mos                      31  5.0    0.000    0.000   19.025   19.326
 qs_scf_loop_do_ot                   31  6.0    0.000    0.000   19.025   19.326
 ot_scf_mini                         31  7.0    0.001    0.001   17.638   17.911
 multiply_cannon                    659 10.9    0.053    0.064   16.726   17.758
 potential_pw2rs                     62 10.0    0.012    0.013   17.524   17.548
 xc_functional_eval                  62 11.0    0.001    0.001   16.441   16.796
 libxc_lda_eval                      62 12.0   16.440   16.794   16.441   16.795
 multiply_cannon_loop               659 11.9    0.072    0.078   15.647   16.676
 xc_pw_divergence                    31 10.0    0.002    0.003   12.610   13.833
 mp_alltoall_z22v                   817 13.9   11.305   12.504   11.305   12.504
 multiply_cannon_multrec           7908 12.9   10.213   11.858   10.217   11.862
 transfer_rs2pw                     257  8.0    0.004    0.006   10.047   11.395
 transfer_pw2rs                     248 11.0    0.004    0.005   10.890   10.899
 mp_waitall_1                     92552 13.8    7.816   10.326    7.816   10.326
 ot_mini                             31  8.0    0.000    0.000    9.521    9.831
 prepare_preconditioner               4  5.0    0.000    0.000    9.605    9.650
 make_preconditioner                  4  6.0    0.000    0.000    9.605    9.650
 yz_to_x                            348 12.6    2.173    2.464    8.100    9.515
 mp_waitany                       10626 11.5    7.213    9.419    7.213    9.419
 x_to_yz                            343 13.4    2.353    2.409    7.725    7.911
 transfer_rs2pw_500                  65  9.0    2.356    2.963    6.061    7.455
 transfer_pw2rs_500                  62 12.0    2.580    2.960    6.304    6.862
 make_full_inverse_cholesky           4  7.0    0.000    0.000    5.953    6.017
 apply_preconditioner_dbcsr          35 10.0    0.000    0.000    4.937    5.125
 apply_single                        35 11.0    0.000    0.000    4.937    5.125
 qs_ot_get_derivative                31  9.0    0.000    0.000    4.779    5.058
 multiply_cannon_metrocomm1        7908 12.9    0.030    0.033    3.418    4.804
 multiply_cannon_metrocomm3        7908 12.9    0.023    0.027    1.084    4.797
 ot_diis_step                        31  9.0    0.002    0.002    4.714    4.715
 mp_alltoall_d11v                   651 11.5    2.872    4.692    2.872    4.692
 qs_ot_get_p                         35  7.8    0.000    0.000    4.208    4.612
 rs_gather_matrices                  62 10.0    0.133    0.160    2.191    4.119
 -------------------------------------------------------------------------------

 The number of warnings for this run is : 1
 
 -------------------------------------------------------------------------------
  **** **** ******  **  PROGRAM ENDED AT                 2024-09-13 03:25:54.478
 ***** ** ***  *** **   PROGRAM RAN ON                                  nid02963
 **    ****   ******    PROGRAM RAN BY                                  bsertcan
 ***** **    ** ** **   PROGRAM PROCESS ID                                 14955
  **** **  *******  **  PROGRAM STOPPED IN /scratch/snx3000/bsertcan/MFU_sp/rsca
                                           n/cl/xe/rep43
