     409
 i =      56, E =    -5133.8724111807
  N         2.8531807371        5.2027919103       15.9899442050
  C         1.5361606363        5.4847380304       16.2490739536
  N        13.6338961171        5.1411220988        5.1201705871
  C        12.3144147120        5.4005562258        5.3983616343
  N        19.6429887164       17.6018183375       16.0344814154
  C        20.9601928703       17.3259712372       16.3016886264
  N         8.7710298436       17.5517398849        5.1983831104
  C        10.0886257163       17.2779114807        5.4662459878
  N        19.4928882291        5.2032471089        6.7692582317
  C        20.8116200023        5.4732869266        6.5030308510
  N         8.7175488074        5.1767496777       17.5631084057
  C        10.0352150092        5.4416639901       17.2864471484
  N         2.9075476878       17.5408560965        6.7745522521
  C         1.5892475495       17.2786608577        6.5018424143
  N        13.7815692215       17.6114395926       17.6064435387
  C        12.4640889644       17.3372794493       17.3384975728
  N        15.8121736281        3.0151655416        5.1770910125
  C        16.0999844883        1.7024034009        5.4514455481
  N        15.9455261406       13.8953175801       16.0403899672
  C        16.1987165496       12.5748390368       16.3124599958
  N        15.9368784719       19.7533894658       17.5863878649
  C        16.1782309790       21.0710228986       17.2936346344
  N        15.7964781879        8.8904705082        6.6920630524
  C        16.0915106757       10.2091156238        6.4486118262
  N         6.5973361053       19.6996981285        5.2073920067
  C         6.2978512754       21.0139049339        5.4599610012
  N         6.5988076412        8.8960528868       16.0104889778
  C         6.3525969582       10.2180775073       16.2884429435
  N         6.5585720093        3.0502178194       17.5732499961
  C         6.3086919446        1.7298981731       17.3040101462
  N         6.5881369885       13.8222286078        6.7331208753
  C         6.3091011674       12.5058828961        6.4593759924
  N         5.0538372866       16.0096941852        3.0428888796
  C         5.3337496695       16.2841860212        1.7280896575
  N         4.9862531100        5.1629704730       13.8438014793
  C         5.2458842342        5.4339719245       12.5243258414
  N        17.4914659812       16.0381095556       19.7456114300
  C        17.2073595816       16.2943573955       21.0628188574
  N        17.3071922297        5.2075394159        8.8868722100
  C        17.0433411368        5.4976636990       10.2007999646
  N         4.9927829312        6.7593286937       19.6988611035
  C         5.2451426939        6.4792012123       21.0180416068
  N         5.0769630676       17.5409425242        8.9180888911
  C         5.3650952154       17.2800726218       10.2333403257
  N        17.3860544914        6.7027844437        3.0238843460
  C        17.1292605415        6.4314178923        1.7049483247
  N        17.4942044177       17.6072896292       13.8742079305
  C        17.2125827365       17.3365175967       12.5587414983
  N         4.9464759951        3.0012634902        6.7112024309
  C         5.2345028461        1.6851219265        6.4516535952
  N         5.1017796569       13.8656908700       17.5873830033
  C         5.3623216054       12.5477180433       17.3112258565
  N        17.4343047633       19.7243281830        6.7472765052
  C        17.1470645498       21.0380297173        6.4754105817
  N        17.4176655081        8.9204495355       17.6145424743
  C        17.1709722747       10.2412877982       17.3376140218
  N         5.0936561168       19.7141871935       16.0191726969
  C         5.3402988629       21.0348648290       16.2905613739
  N         4.9837165604        8.8798068397        5.1659890468
  C         5.2691426309       10.1944864920        5.4377384877
  N        17.3814617211        3.0776618392       15.9551241872
  C        17.1373600869        1.7573931097       16.2379147449
  N        17.4438204112       13.8457497019        5.2199242498
  C        17.1528877569       12.5291803444        5.4739123412
  N         2.9544248973       16.0196023486       17.5781156429
  C         1.6380269315       16.2971734086       17.3120735673
  N        13.7315062093       15.9993319365        6.7538194836
  C        12.4118899537       16.2594564389        6.4791400806
  N        19.5887187066       16.0091812275        5.2099885500
  C        20.9064564639       16.2758577871        5.4805350245
  N         8.8266862043       16.0377849497       16.0569090622
  C        10.1443337057       16.3113874946       16.3266723319
  N        19.5426432538        6.7706225188       17.5372444722
  C        20.8583451725        6.5040985333       17.2596979975
  N         8.6753555276        6.6674799174        6.7114141621
  C         9.9922758396        6.4000091703        6.4343312793
  N         2.8110180268        6.7420458080        5.1986820193
  C         1.4936394837        6.4809234928        5.4781650090
  N        13.6761960274        6.7446884373       16.0141212301
  C        12.3572257746        6.4598686219       16.2685803748
  N        15.8607068452        5.1670319171       19.6976495159
  C        16.1288024228        5.4255268503       21.0169535983
  N        15.8967200624       16.0439271406        8.9290715165
  C        16.1739611698       16.3170648440       10.2457593009
  N        15.8799790728       17.5424279898        3.0571157187
  C        16.1640127527       17.2842682606        1.7408736737
  N        15.8046516209        6.8264135175       13.8429392752
  C        16.0540927125        6.5461885419       12.5216361411
  N         6.4952077183        5.1605679653        3.0148376300
  C         6.2324944658        5.4408622852        1.6991582870
  N         6.6787801005       16.0231216914       13.8745973839
  C         6.4049359971       16.2832596705       12.5540423903
  N         6.6487803260       17.5830968554       19.7417850554
  C         6.3698874159       17.3093280201       21.0572770288
  N         6.5132799108        6.7043467953        8.8745944998
  C         6.2456422977        6.4437413357       10.1948170949
  N        19.5919986382       17.5672507419        6.7637690227
  C        20.9088860870       17.2906773610        6.4970857118
  N         8.8219760450       17.6011189891       17.6042723462
  C        10.1413020708       17.3324537629       17.3373874247
  N         2.8106022791        5.1854414391        6.7545895458
  C         1.4929807829        5.4663665538        6.4952420724
  N        13.6755885233        5.2038840751       17.5829937478
  C        12.3576856693        5.4572258936       17.2973624524
  N         2.9582995033       17.5690994862       16.0175258475
  C         1.6404745642       17.3097169104       16.2937686503
  N        13.7270952155       17.5646689405        5.2094195865
  C        12.4102415563       17.2848251100        5.4731341113
  N        19.5364939264        5.2305489653       15.9667672240
  C        20.8553983203        5.4955636741       16.2372304898
  N         8.6706085510        5.1268586731        5.1419593201
  C         9.9901010335        5.3929555989        5.4103393087
  N         6.6437271508       19.7372660407       17.5808602749
  C         6.3529969630       21.0505823417       17.3091038276
  N         6.5474297240        8.8603239959        6.7129212385
  C         6.2895106217       10.1823004614        6.4489187742
  N         6.4971152685        3.0096371890        5.1512769000
  C         6.2470500885        1.6918217615        5.4331724712
  N         6.6719744383       13.8614860645       16.0471042444
  C         6.3880658573       12.5426869740       16.3055586087
  N        15.8349969359        3.0633168713       17.5191119130
  C        16.1278900259        1.7493694448       17.2594460268
  N        15.8954768266       13.8517059382        6.7823495057
  C        16.1406798678       12.5320697454        6.4932664397
  N        15.8841347077       19.7027385927        5.1866292899
  C        16.1361130538       21.0232470190        5.4553430250
  N        15.8644014005        8.9373790835       16.0572053923
  C        16.1566803443       10.2530647506       16.3202366712
  N        17.4192937194        6.7190551810       19.7124823195
  C        17.1456077583        6.4395973232       21.0265960504
  N        17.4556444955       17.5954430921        8.9173685655
  C        17.1928415970       17.3297261496       10.2370537192
  N         4.9459726862        6.7222542351        3.0181079559
  C         5.2214136695        6.4609270243        1.6993673657
  N         5.1160729257       17.5697922180       13.8696600872
  C         5.3844730398       17.2940886840       12.5534961479
  N        17.4375829494       15.9905967656        3.0608028521
  C        17.1805222343       16.2698736728        1.7427455417
  N        17.3537777348        5.2641503734       13.8348224025
  C        17.0663990629        5.5265368664       12.5198726509
  N         5.0951958746       16.0241343809       19.7290329745
  C         5.3550667114       16.2927022683       21.0481052494
  N         4.9687284248        5.1388822429        8.8858588023
  C         5.2372531839        5.4207981478       10.2019682091
  N        17.4830084428       19.7597793028       16.0210879805
  C        17.1876283553       21.0764035630       16.2716148876
  N        17.3545421840        8.8903103713        5.1406959265
  C        17.1078939696       10.2077800013        5.4335396985
  N         5.0023557393        3.0280036003       16.0177072785
  C         5.2935945226        1.7144317569       16.2879621270
  N         5.0313557418       13.8376861190        5.1791128596
  C         5.2914461666       12.5170450166        5.4454713917
  N        17.3541509466        3.0393922472        6.7462920840
  C        17.1075952725        1.7179756887        6.4748930264
  N        17.4973523813       13.8797723982       17.5980878139
  C        17.2120853044       12.5639986902       17.3300807774
  N         5.0447072467       19.6869827534        6.7649910673
  C         5.2844632186       21.0058821155        6.4775944233
  N         5.0293438005        8.9120414241       17.5505653572
  C         5.3270440982       10.2266738451       17.2942548671
  N        19.4979712101        6.7487230110        5.2045879551
  C        20.8139183869        6.4835762873        5.4823830079
  N         8.7155037980        6.6960459437       15.9726086609
  C        10.0342801568        6.4353043691       16.2493426987
  N         2.8556258167        6.7674970072       17.5368441664
  C         1.5379091225        6.5028945379       17.2622698751
  N        13.6311165689        6.6936198469        6.6791434994
  C        12.3136361005        6.4124990149        6.4182376993
  N         2.9025239369       16.0009893786        5.2039172916
  C         1.5862307260       16.2708589142        5.4785944250
  N        13.7851410877       16.0495468367       16.0588553866
  C        12.4664722475       16.3168485009       16.3277272252
  N        19.6405565749       16.0461406583       17.5913152843
  C        20.9582094716       16.3111315568       17.3184200903
  N         8.7697354367       15.9698939381        6.7264196325
  C        10.0887333408       16.2461231681        6.4657681512
  N         6.6132161225       17.5617811354        3.0577498681
  C         6.3509598374       17.2982144978        1.7379178957
  N         6.5269495276        6.7328461309       13.8344227549
  C         6.2527548939        6.4586338609       12.5173707481
  N         6.5436643348        5.1996809513       19.7064457013
  C         6.2569082205        5.4599326254       21.0213401691
  N         6.6359407103       15.9893228806        8.9080618349
  C         6.3840006052       16.2674081855       10.2292190434
  N        15.9393520407       17.5970000321       19.7449242267
  C        16.1930795379       17.3114193623       21.0619679816
  N        15.7533043484        6.7635281639        8.8734133640
  C        16.0291350364        6.5149195953       10.1953243508
  N        15.8325957555        5.1448592087        3.0104969137
  C        16.1145006820        5.4150524554        1.6957944848
  N        15.9324264391       16.0596658121       13.8887520494
  C        16.1925592364       16.3253275988       12.5680516040
 Zn        14.6573180079       14.7726768612       14.7676306703
 Br        13.3349548923       13.4832741879       13.4477617085
 Zn        14.5301346670        3.8473221553        3.8509946661
 Br        13.2395400788        2.5172239317        2.5299743384
 Zn         3.7483595234       14.7186953492        3.8928634670
 Br         2.4246051121       13.4258963224        2.5669849217
 Zn         3.7011271196        3.8792974125       14.7209691779
 Br         2.3751474760        2.5549372032       13.4279950234
 Zn         7.8391016500        7.9954663609       14.7058717077
 Br         9.1309535338        9.2917121634       13.3667786383
 Zn         7.9033660574       18.8522292601        3.9214625576
 Br         9.2186141337       20.1737749821        2.6150042992
 Zn        18.6604206657        8.0152276061        3.8786868814
 Br        19.9864227919        9.3194099197        2.5655353704
 Zn        18.7841818637       18.8951862704       14.7368857280
 Br        20.1005254736       20.2136075254       13.4270829366
 Zn         7.8884943991       14.6899023630        8.0076547567
 Br         9.1876806719       13.3621925106        9.3073901619
 Zn         7.8475494859        3.9068208800       18.8697027626
 Br         9.1652982844        2.6012872839       20.1886260460
 Zn        18.7855797321       14.7490740827       18.8849045365
 Br        20.0979049909       13.4309720205       20.1992185915
 Zn        18.6167094683        3.9133644162        8.0543635076
 Br        19.9265234599        2.6124004963        9.3853831147
 Zn        14.4841259891        8.0135029545        7.9424144100
 Br        13.1189935765        9.3756428714        9.1347552659
 Zn        14.6544794103       18.8980794703       18.8899701354
 Br        13.3414667980       20.2106863779       20.2087429277
 Zn         3.7195230985        8.0618375581       18.8282029050
 Br         2.4130948838        9.3875473897       20.1399058228
 Zn         3.7723866057       18.8251277520        8.0696375496
 Br         2.4624915211       20.1383953502        9.3905315964
 Zn        14.6174197749       14.7488479557        8.0602372488
 Br        13.3072460148       13.4649748822        9.3929519036
 Zn        14.5508212478        3.8940100061       18.8374312373
 Br        13.2466365898        2.5659990052       20.1485022157
 Zn         3.8052034387       14.7248311165       18.8734449785
 Br         2.4851505878       13.4150341327       20.1853209521
 Zn         3.6689577587        3.8577816638        8.0173355588
 Br         2.3474961346        2.5507799960        9.3331238226
 Zn         7.8159011559        7.9616567569        7.9970968273
 Br         9.1314469098        9.2644873501        9.3105310380
 Zn         7.9399881450       18.8871743006       18.8848286177
 Br         9.2363283377       20.2123050293       20.2064429977
 Zn        18.7111126841        8.0280143896       18.8793837228
 Br        20.0416006009        9.3149028690       20.2040150969
 Zn        18.7375307955       18.8819279959        8.0416761339
 Br        20.0606016884       20.2080663244        9.3357820236
 Zn        14.5489444967        8.0856683437       14.7858995445
 Br        13.1600455510        9.4866609759       13.6703932781
 Zn        14.5884498802       18.8370040191        3.9023142922
 Br        13.2668720783       20.1437285231        2.5871191048
 Zn         3.6715978328        8.0225242433        3.8916773535
 Br         2.3633808103        9.3513843111        2.5842750694
 Zn         3.8139089076       18.8526492883       14.7179020345
 Br         2.4984727111       20.1633509976       13.4007148554
 Zn         7.9564679743       14.7509461292       14.7716923459
 Br         9.2757322117       13.4431313970       13.4705227061
 Zn         7.7886617822        3.8534629505        3.8490236825
 Br         9.0946558919        2.5375752999        2.5286045995
 Zn        18.7305357826       14.7068941695        3.9263041238
 Br        20.0381970046       13.3846853251        2.6115201542
 Zn        18.6597389058        3.9586979770       14.6651345403
 Br        19.9596841320        2.6538913254       13.3283689014
 Zn         5.7820607567        5.9618089095       16.7728153265
 Zn        16.7209658044       16.8274876144       16.8206140289
 Zn        16.5601351056        5.9518278344        5.9382658836
 Zn         5.8368350127       16.7659852059        5.9787735174
 Zn         5.7341245555        5.9350784363        5.9453835550
 Zn        16.6653525532       16.7824203340        5.9940801038
 Zn         5.8922756385       16.8016661313       16.8141508015
 Zn        16.6094337728        6.0014584366       16.7804918721
  N         3.6008831523        5.9799249228       16.7675880262
  N        14.3784433336        5.9239564460        5.8955732587
  N        18.8956829775       16.8263166712       16.8142687726
  N         8.0238187920       16.7601075402        5.9612833950
  N        18.7482005840        5.9741666445        5.9823139543
  N         7.9697853028        5.9365002533       16.7685117968
  N         3.6519848372       16.7691954836        5.9885705895
  N        14.5303956761       16.8322935902       16.8319946347
  N        16.5725357214        3.7737951152        5.9608206742
  N        16.7289000761       14.6345798773       16.8183730583
  N        16.7238260852       19.0102699506       16.8149223479
  N        16.5629605957        8.1438307466        5.9042479188
  N         5.8365840624       18.9466628496        5.9958308782
  N         5.8000647190        8.1573235355       16.7739297047
  N         5.7706227882        3.7855150759       16.7954927382
  N         5.8151609844       14.5764778437        5.9581469531
  N         5.8294168917       16.7830657865        3.7969471955
  N         5.7610413752        5.9482974429       14.5855456753
  N        16.7232680526       16.8251239311       18.9987962067
  N        16.5275277367        5.9749218803        8.1331651069
  N         5.7774888919        5.9847626835       18.9557581806
  N         5.8465889265       16.7601882389        8.1666438677
  N        16.6021503694        5.9249113873        3.7636761258
  N        16.7185955581       16.8343922487       14.6284199483
  N         5.7131477998        3.7523130988        5.9259007111
  N         5.8929078062       14.6102927594       16.8215988791
  N        16.6677481770       18.9667386912        5.9679254277
  N        16.6293137011        8.1829516489       16.8390008705
  N         5.8795038063       18.9794061959       16.7994786696
  N         5.7580175487        8.1235383137        5.9382304322
  N        16.5961085743        3.8173710360       16.7321130399
  N        16.6808080432       14.5950546808        6.0095033827
  N         3.7037175506       16.7898539964       16.7951769798
  N        14.4759987044       16.7871759363        5.9848468649
  N        18.8439203737       16.7905667562        5.9860770206
  N         8.0780456696       16.8176948058       16.8294052506
  N        18.7926194943        6.0009871470       16.7551139301
  N         7.9259714194        5.8982321383        5.9285425175
  N         3.5568784024        5.9576065191        5.9706476124
  N        14.4221186799        5.9833517814       16.8069458296
  N        16.6403692713        5.9493310877       18.9582041868
  N        16.6727966322       16.8174768279        8.1768719774
  N        16.6521800131       16.7615625048        3.8061575251
  N        16.5890603156        6.0491431842       14.5856306230
  N         5.7180422322        5.9367829002        3.7632650398
  N         5.8985248474       16.8002520089       14.6191652826
  N         5.8766856041       16.8044784106       18.9892023559
  N         5.7413378528        5.9164880726        8.1335021289
  C        11.3069500529       15.7616869976       15.7806787521
  H        11.3097896572       14.9828722988       15.0085660042
  C        11.1512616897        4.8498751233        4.8522793842
  H        11.1487741572        4.0795726277        4.0716344220
  C         0.4247335330       15.7255552575        4.9274314803
  H         0.4228056487       14.9534863236        4.1484653510
  C         0.3758236072        4.9429681081       15.6904913709
  H         0.3770727684        4.1692488771       14.9132780300
  C        11.1945576436        6.9841347396       15.6973577706
  H        11.1936161563        7.7481724988       14.9108665415
  C        11.2493229953       17.8375125659        4.9270644360
  H        11.2494617634       18.6230754029        4.1618337662
  C         0.3335884149        7.0326189961        4.9306717479
  H         0.3322567880        7.8058544691        4.1527245613
  C         0.4822186254       17.8678340429       15.7477449737
  H         0.4855702736       18.6433864573       14.9722411869
  C        11.2504374617       15.6949018970        7.0137326517
  H        11.2506724725       14.9095816054        7.7792835276
  C        11.1973900817        4.9082412742       17.8495154964
  H        11.1985622474        4.1469231959       18.6388991507
  C         0.4764266928       15.7561307385       17.8671785420
  H         0.4740267036       14.9831099348       18.6451974669
  C         0.3323623197        4.9242349602        7.0531375162
  H         0.3329203496        4.1519007407        7.8316980202
  C        11.1536376135        6.9505917775        6.9802499372
  H        11.1554258577        7.7227720266        7.7588399916
  C        11.3012823587       17.8870013493       17.8849380361
  H        11.2998161005       18.6661492878       18.6567743869
  C         0.3780508906        7.0535608905       17.8109349290
  H         0.3765833726        7.8267938669       18.5888941351
  C         0.4307391042       17.8322366295        7.0518861490
  H         0.4330041475       18.6054005042        7.8298013684
  C        15.6305580584       11.4220582555       15.7650832023
  H        14.8542294986       11.4334722019       14.9907400635
  C        15.5715674783        0.5335111878        4.8999289390
  H        14.8003746553        0.5192378898        4.1201393660
  C         4.7294569161       11.3628155856        4.8938514833
  H         3.9513991981       11.3729828785        4.1209877055
  C         4.7674163471        0.5434405470       15.7388556166
  H         3.9923904672        0.5254133487       14.9630127219
  C        15.5684908181       11.3717453035        7.0218565530
  H        14.7928764404       11.3720486173        7.7969697242
  C        15.6055073405        0.5864336788       17.8288955816
  H        14.8344291094        0.5812261098       18.6089815606
  C         4.7909955172       11.3915280304       17.8474981530
  H         4.0078015628       11.3981471513       18.6151684240
  C         4.7092046904        0.5200947287        7.0148651094
  H         3.9354117048        0.5108835034        7.7921378769
  C         6.9265008152       11.3759700007       15.7543588981
  H         7.7090668509       11.3693464594       14.9860767783
  C         6.8194609982        0.5382623307        4.8933492145
  H         7.5921723273        0.5470936426        4.1150921685
  C        17.6794504863       11.3673640851        4.9039481021
  H        18.4536194095       11.3662498140        4.1270829106
  C        17.7077174975        0.6006682129       15.7003077277
  H        18.4778786421        0.6065063198       14.9196101517
  C         6.8506423661       11.3371244768        7.0014544830
  H         7.6282954930       11.3267987301        7.7746466663
  C         6.8795179139        0.5815100788       17.8577478429
  H         7.6530650511        0.5995957643       18.6350250019
  C        17.7407143567       11.3949683030       17.8837494161
  H        18.5145794173       11.3833943630       18.6607748578
  C        17.6739382761        0.5672488167        7.0285435607
  H        18.4442466050        0.5812725975        7.8090759509
  C        15.6311737444       15.7743231543       11.4130993557
  H        14.8522498495       15.0024236964       11.4231065489
  C        15.5725307324        4.8688020658        0.5306004349
  H        14.7963876011        4.0939066334        0.5214509727
  C         4.7937736816       15.7393731918        0.5612880357
  H         4.0170960403       14.9650630966        0.5504032782
  C         4.6950877922        4.8749088025       11.3681317766
  H         3.9246131787        4.0944917963       11.3755364160
  C         6.9474818020       15.7293358112       11.3904322924
  H         7.7258220219       14.9567841049       11.3885800661
  C         6.7910976911        4.8967696549        0.5413836763
  H         7.5626010311        4.1172527338        0.5432368066
  C        17.7434152295       15.7314316072        0.5833975193
  H        18.5184637655       14.9554771050        0.5844803245
  C        17.6022297330        4.9615472550       11.3616567487
  H        18.3757982479        4.1840162343       11.3639450493
  C        15.4932856543        7.0815990191       11.3569895464
  H        14.7198825428        7.8588070036       11.3522583415
  C        15.6279829350       17.8475856687        0.5809658788
  H        14.8522725284       18.6230128454        0.5803847999
  C         4.6849356721        7.0220086236        0.5375237441
  H         3.9135724208        7.8017028801        0.5354115016
  C         4.8243357652       17.8354813105       11.3946928510
  H         4.0457132521       18.6078710512       11.3968432917
  C         6.7929767073        7.0062897100       11.3510196278
  H         7.5627685887        7.7873697576       11.3433319250
  C         6.9100158619       17.8540004479        0.5844788734
  H         7.6849762831       18.6300247971        0.5954514294
  C        17.6891490465        6.9844174059        0.5514647991
  H        18.4642253586        7.7603987625        0.5601304662
  C        17.7541786673       17.8809879986       11.3918089480
  H        18.5325817091       18.6535768578       11.3822634776
 Xe        11.2452010135       11.3568454926       11.3794970267
