     409
 i =      56, E =    -5133.8844771993
  N         2.9749363773        5.2194898222       16.0489869497
  C         1.6553565198        5.4849612062       16.3115749194
  N        13.7466866463        5.1974182236        5.1974191518
  C        12.4309583399        5.4732604566        5.4732616235
  N        19.6903723174       17.5695802255       16.0133702486
  C        21.0079579709       17.3125214800       16.2966965455
  N         8.8329658471       17.6067347652        5.2311736644
  C        10.1506627189       17.3256380986        5.4918639318
  N        19.6131996691        5.1900905096        6.7449950970
  C        20.9305554617        5.4743601929        6.4898641981
  N         8.8329653111        5.2311742213       17.6067355432
  C        10.1506623497        5.4918641992       17.3256390661
  N         2.9621855151       17.5987422904        6.7810349669
  C         1.6463506442       17.3247414833        6.5030962537
  N        13.8361341419       17.5746220610       17.5746206731
  C        12.5165097102       17.3097942075       17.3097913321
  N        15.8973480397        3.0325373852        5.1887203944
  C        16.1737959101        1.7153041080        5.4570275592
  N        15.9738096381       13.8599263114       16.0098811305
  C        16.2394158316       12.5415629306       16.2797523912
  N        15.9878748873       19.7185340310       17.5646973629
  C        16.2477279819       21.0365062528       17.2890418583
  N        15.9149993188        8.9019531569        6.7466466594
  C        16.1914614451       10.2185174992        6.4769246524
  N         6.6696289117       19.7646554839        5.2405182627
  C         6.3886128558       21.0806289439        5.5084259999
  N         6.6760612745        8.9341606130       16.0367322092
  C         6.4143222545       10.2531199478       16.3085467237
  N         6.6845716864        3.0780926800       17.6172911106
  C         6.4245350596        1.7586769605       17.3450843910
  N         6.6839491439       13.8916287988        6.7662535035
  C         6.4100092980       12.5747142161        6.4961340627
  N         5.1314705383       16.0593884675        3.0697557899
  C         5.4096036991       16.3287317978        1.7536660735
  N         5.1195228283        5.2199661638       13.8967519698
  C         5.3863581599        5.4885468034       12.5781610635
  N        17.5375935132       16.0040553589       19.7227009653
  C        17.2605660377       16.2707775284       21.0399529724
  N        17.4667103460        5.1870737479        8.8954903761
  C        17.2050501818        5.4592600942       10.2142665818
  N         5.1134938779        6.7955135364       19.7550375776
  C         5.3731184154        6.5243198737       21.0747518264
  N         5.1220252969       17.5939398428        8.9409218784
  C         5.4000578900       17.3257042595       10.2575891528
  N        17.4562016948        6.7418526006        3.0376504921
  C        17.1907851978        6.4715141067        1.7195170130
  N        17.5334232026       17.5625473872       13.8544574620
  C        17.2566570849       17.2940311308       12.5376265699
  N         5.0769882462        3.0740193507        6.7898977929
  C         5.3543369816        1.7568072346        6.5218463294
  N         5.1548928537       13.8975085221       17.6023333476
  C         5.4163914422       12.5788196197       17.3296509469
  N        17.4847456272       19.7233627040        6.7390306838
  C        17.2054924752       21.0391000343        6.4700247901
  N        17.5010745996        8.8977082426       17.5715809901
  C        17.2410725670       10.2164399649       17.2978094000
  N         5.1644378947       19.7546800647       16.0507659505
  C         5.4265840500       21.0728549656       16.3245339194
  N         5.0893543654        8.9400638202        5.2330895899
  C         5.3733781858       10.2569291070        5.4935931877
  N        17.5074256577        3.0404529480       15.9968824867
  C        17.2447057278        1.7214145995       16.2674325705
  N        17.5014360888       13.8525615964        5.1970651694
  C        17.2219967793       12.5357404042        5.4635060372
  N         3.0065450065       16.0542996003       17.6091313170
  C         1.6889058033       16.3168961303       17.3324206386
  N        13.7891856142       16.0107549571        6.7552271197
  C        12.4715278606       16.2901347391        6.4928165821
  N        19.6589627340       16.0169127315        5.1978333103
  C        20.9742705393       16.2954629852        5.4729318944
  N         8.8682406869       16.0397307170       16.0397283359
  C        10.1876275703       16.3048526171       16.3048493932
  N        19.6446012525        6.7491186001       17.5774488897
  C        20.9647160556        6.4870014502       17.3127605229
  N         8.8026564697        6.7762561704        6.7762565470
  C        10.1181288063        6.5006552277        6.5006560623
  N         2.9284000230        6.7917803580        5.2361774650
  C         1.6108811944        6.5130959993        5.4974006265
  N        13.7891852692        6.7552270881       16.0107557023
  C        12.4715275751        6.4928165663       16.2901356075
  N        15.9326918590        5.1808243148       19.7138117988
  C        16.1909791317        5.4534009920       21.0334494031
  N        15.9495780750       16.0124899377        8.9042488790
  C        16.2268531665       16.2808987273       10.2207136695
  N        15.9497845314       17.5506306128        3.0330393719
  C        16.2288394916       17.2829761175        1.7168171035
  N        15.9440180581        6.7521211084       13.8581636340
  C        16.2062944578        6.4793113927       12.5396913711
  N         6.6298860978        5.2317444852        3.0794661771
  C         6.3685357821        5.5047399849        1.7612722686
  N         6.7081787682       16.0444177454       13.8912327780
  C         6.4303470923       16.3122543750       12.5745301404
  N         6.7228938699       17.6037900307       19.7590697298
  C         6.4436123159       17.3390142105       21.0765586154
  N         6.6607768919        6.7732371150        8.9352553574
  C         6.4003765999        6.4973924101       10.2534941611
  N        19.6446017045       17.5774488621        6.7491183063
  C        20.9647166043       17.3127609851        6.4870005464
  N         8.8785340321       17.5954459667       17.5954435643
  C        10.1948634190       17.3205958215       17.3205925411
  N         2.9284001430        5.2361768067        6.7917800464
  C         1.6108812551        5.4974000000        6.5130959823
  N        13.7901093937        5.1921427198       17.5594547963
  C        12.4722598540        5.4737493052       17.3025324983
  N         3.0065449404       17.6091322700       16.0542994740
  C         1.6889057640       17.3324212288       16.3168959337
  N        13.7901098096       17.5594537972        5.1921425239
  C        12.4722601743       17.3025315628        5.4737491241
  N        19.6589624644        5.1978333935       16.0169129717
  C        20.9742701593        5.4729326967       16.2954627845
  N         8.7898257691        5.2213704875        5.2213710981
  C        10.1096623245        5.4851095810        5.4851105830
  N         6.7228944252       19.7590707521       17.6037884169
  C         6.4436131982       21.0765596040       17.3390123984
  N         6.6607769872        8.9352554483        6.7732368751
  C         6.4003765090       10.2534942964        6.4973921400
  N         6.6298862030        3.0794663018        5.2317441804
  C         6.3685360724        1.7612722883        5.5047395762
  N         6.7081781037       13.8912339758       16.0444156851
  C         6.4303460310       12.5745313729       16.3122520611
  N        15.9497830264        3.0330392533       17.5506304114
  C        16.2288376244        1.7168170566       17.2829753835
  N        15.9440185258       13.8581631861        6.7521214017
  C        16.2062945676       12.5396908458        6.4793115356
  N        15.9326918682       19.7138111958        5.1808245741
  C        16.1909791633       21.0334488474        5.4534012729
  N        15.9495781067        8.9042488694       16.0124898151
  C        16.2268536967       10.2207136543       16.2808980857
  N        17.4847450047        6.7390310463       19.7233633673
  C        17.2054920050        6.4700248263       21.0391006782
  N        17.5010741615       17.5715815135        8.8977081346
  C        17.2410717533       17.2978104335       10.2164399212
  N         5.0769876754        6.7898976807        3.0740194872
  C         5.3543364958        6.5218464829        1.7568073809
  N         5.1548933836       17.6023354422       13.8975071949
  C         5.4163923909       17.3296531896       12.5788182668
  N        17.5074265800       15.9968821109        3.0404529050
  C        17.2447072385       16.2674328547        1.7214145207
  N        17.5014356152        5.1970648901       13.8525621507
  C        17.2219965829        5.4635059296       12.5357409977
  N         5.1644376996       16.0507675768       19.7546789422
  C         5.4265834694       16.3245357304       21.0728539306
  N         5.0893542616        5.2330898937        8.9400639499
  C         5.3733782329        5.4935935488       10.2569291312
  N        17.5375928831       19.7227011037       16.0040551813
  C        17.2605647672       21.0399530810       16.2707769548
  N        17.4667100280        8.8954897029        5.1870737323
  C        17.2050499115       10.2142658843        5.4592600644
  N         5.1314703680        3.0697570116       16.0593879592
  C         5.4096040813        1.7536672299       16.3287304843
  N         5.1195225784       13.8967519097        5.2199651023
  C         5.3863579102       12.5781611000        5.4885461756
  N        17.4562017197        3.0376498519        6.7418533739
  C        17.1907853402        1.7195164481        6.4715146280
  N        17.5334237937       13.8544575881       17.5625464882
  C        17.2566579949       12.5376266367       17.2940299556
  N         5.1134946403       19.7550374645        6.7955124384
  C         5.3731191656       21.0747517191        6.5243190937
  N         5.1220241884        8.9409231729       17.5939384628
  C         5.4000564841       10.2575904416       17.3257024065
  N        19.6131996250        6.7449949699        5.1900914039
  C        20.9305554388        6.4898639944        5.4743609630
  N         8.8318656283        6.7843047328       16.0481595261
  C        10.1498007911        6.5070754606       16.3093771914
  N         2.9621850227        6.7810369898       17.5987418612
  C         1.6463501823        6.5030981257       17.3247408429
  N        13.7587784656        6.7539808538        6.7539817813
  C        12.4392401498        6.4890831145        6.4890842148
  N         2.9749366142       16.0489872292        5.2194881238
  C         1.6553569650       16.3115754466        5.4849596130
  N        13.8242521287       16.0188348235       16.0188332513
  C        12.5086848913       16.2941746213       16.2941717260
  N        19.6903723939       16.0133701345       17.5695795373
  C        21.0079579810       16.2966966340       17.3125209933
  N         8.8318659457       16.0481587162        6.7843041578
  C        10.1498010692       16.3093763351        6.5070751391
  N         6.6845717864       17.6172919673        3.0780916868
  C         6.4245345151       17.3450858061        1.7586758475
  N         6.6839498440        6.7662541086       13.8916286270
  C         6.4100098550        6.4961345607       12.5747140676
  N         6.6696278460        5.2405190737       19.7646553474
  C         6.3886121043        5.5084266781       21.0806289164
  N         6.6760623453       16.0367336878        8.9341597044
  C         6.4143235562       16.3085487909       10.2531188077
  N        15.9878760041       17.5646979681       19.7185341052
  C        16.2477296452       17.2890427584       21.0365062720
  N        15.9149997627        6.7466467981        8.9019537135
  C        16.1914617772        6.4769247832       10.2185181164
  N        15.8973481847        5.1887194607        3.0325379334
  C        16.1737959533        5.4570268323        1.7153046230
  N        15.9738096997       16.0098813912       13.8599261641
  C        16.2394154025       16.2797531597       12.5415628755
 Zn        14.6747683242       14.7223227669       14.7223225685
 Br        13.3525312196       13.4122358130       13.4122357249
 Zn        14.6028449079        3.8995099488        3.8995105089
 Br        13.2792990427        2.5895467299        2.5895475963
 Zn         3.8383730748       14.7647375885        3.9232860760
 Br         2.5232647923       13.4538118789        2.6052084741
 Zn         3.8383728233        3.9232882288       14.7647375253
 Br         2.5232644570        2.6052103812       13.4538119316
 Zn         7.9666465721        8.0665458516       14.7499689345
 Br         9.2702195960        9.3797189738       13.4211831577
 Zn         7.9672338445       18.9109436133        3.9497768142
 Br         9.2848534708       20.2255123469        2.6379054059
 Zn        18.7558767458        8.0306345298        3.8940736769
 Br        20.0701690851        9.3426298993        2.5767049061
 Zn        18.8281184753       18.8568291264       14.7137176704
 Br        20.1432857962       20.1671371837       13.3954471206
 Zn         7.9666463681       14.7499684302        8.0665455800
 Br         9.2702188821       13.4211823994        9.3797188629
 Zn         7.9672328907        3.9497771094       18.9109442162
 Br         9.2848522425        2.6379056881       20.2255132050
 Zn        18.8281187404       14.7137175885       18.8568285589
 Br        20.1432862125       13.3954472555       20.1671367369
 Zn        18.7558767647        3.8940733745        8.0306354732
 Br        20.0701690469        2.5767046684        9.3426309533
 Zn        14.6243829221        8.0469410525        8.0469414609
 Br        13.3222516816        9.3669736975        9.3669741841
 Zn        14.7046232220       18.8661724496       18.8661727566
 Br        13.3925629127       20.1817828991       20.1817833411
 Zn         3.8246992499        8.0820613971       18.8831424112
 Br         2.5104099527        9.4019060291       20.1937981122
 Zn         3.8246994054       18.8831426723        8.0820595059
 Br         2.5104099919       20.1937980998        9.4019043596
 Zn        14.6558171724       14.7194545832        8.0495917799
 Br        13.3366979243       13.4110673481        9.3656209367
 Zn        14.6519547457        3.8890584386       18.8387692028
 Br        13.3366902896        2.5720145150       20.1517007140
 Zn         3.8681329979       14.7625321263       18.8952055899
 Br         2.5539324217       13.4505523122       20.2136517728
 Zn         3.7892104268        3.9442259801        8.0827155282
 Br         2.4776853050        2.6313320661        9.4023755597
 Zn         7.9462958260        8.0698203694        8.0698202335
 Br         9.2828865110        9.3741261562        9.3741261372
 Zn         8.0174262191       18.8890026068       18.8890016532
 Br         9.3397939482       20.2003802540       20.2003795292
 Zn        18.7781222437        8.0336277223       18.8748265820
 Br        20.0948589994        9.3452249908       20.1904731294
 Zn        18.7781225749       18.8748262563        8.0336276372
 Br        20.0948594029       20.1904727787        9.3452248806
 Zn        14.6558168750        8.0495915275       14.7194549531
 Br        13.3366974928        9.3656205387       13.4110677419
 Zn        14.6519551912       18.8387683857        3.8890585204
 Br        13.3366906861       20.1516994815        2.5720142777
 Zn         3.7892101791        8.0827154603        3.9442261952
 Br         2.4776849587        9.4023754600        2.6313323639
 Zn         3.8681325937       18.8952062477       14.7625315909
 Br         2.5539314200       20.2136520616       13.4505519176
 Zn         8.0016812947       14.7516660282       14.7516643976
 Br         9.3004745246       13.4288881629       13.4288877142
 Zn         7.9174455233        3.9371409841        3.9371407082
 Br         9.2231890642        2.6172537018        2.6172533889
 Zn        18.8042430832       14.7136295970        3.9087966267
 Br        20.1178414183       13.3945865299        2.5985191259
 Zn        18.8042424478        3.9087963583       14.7136300850
 Br        20.1178409504        2.5985185798       13.3945874898
 Zn         5.8991382504        6.0064776837       16.8272128509
 Zn        16.7649769578       16.7826790614       16.7826789107
 Zn        16.6746233394        5.9618499224        5.9618504856
 Zn         5.8991385814       16.8272129209        6.0064766847
 Zn         5.8549096502        6.0088670388        6.0088670661
 Zn        16.7200735153       16.7803757216        5.9639284280
 Zn         5.9454850291       16.8259495077       16.8259484671
 Zn        16.7200732095        5.9639282959       16.7803762247
  N         3.7152946807        6.0032089716       16.8264328532
  N        14.4988461718        5.9729643123        5.9729651235
  N        18.9441623395       16.7842252534       16.7842250199
  N         8.0857174821       16.8321029126        6.0119111070
  N        18.8659372343        5.9597765386        5.9597770634
  N         8.0857170570        6.0119115295       16.8321036263
  N         3.7152949544       16.8264331561        6.0032068675
  N        14.5770791262       16.7940839927       16.7940831212
  N        16.6741512299        3.7815467036        5.9658425935
  N        16.7564478297       14.6035998716       16.7858089170
  N        16.7670366174       18.9734749231       16.7869779214
  N        16.6871722989        8.1517530162        5.9660754777
  N         5.8969671949       19.0131049953        6.0189439503
  N         5.8951497459        8.1908873312       16.8145918158
  N         5.9034224523        3.8207547669       16.8390278748
  N         5.9032886155       14.6411364767        5.9938975077
  N         5.9034227095       16.8390282065        3.8207538343
  N         5.9032890070        5.9938985278       14.6411365753
  N        16.7670373321       16.7869782159       18.9734749306
  N        16.6871726984        5.9660755215        8.1517536193
  N         5.8969662386        6.0189449090       19.0131049868
  N         5.8951510092       16.8145930994        8.1908864868
  N        16.6741513376        5.9658416268        3.7815473040
  N        16.7564476546       16.7858093685       14.6035997290
  N         5.8497555312        3.8235367959        6.0092115373
  N         5.9357498871       14.6411398307       16.8247155187
  N        16.7142586683       18.9714819325        5.9588219940
  N        16.7208753429        8.1538971504       16.7935097090
  N         5.9479123179       19.0102800014       16.8247330653
  N         5.8684313110        8.1910320457        6.0073723372
  N        16.7244282440        3.7832913528       16.7730285710
  N        16.7269607537       14.6017094627        5.9762921142
  N         3.7538627425       16.8349149158       16.8349143542
  N        14.5361895125       16.7794493910        5.9684274580
  N        18.9051120176       16.7938248788        5.9704863352
  N         8.1268577497       16.8199842572       16.8199815886
  N        18.9051117481        5.9704862760       16.7938252565
  N         8.0489977530        6.0018838363        6.0018840831
  N         3.6749209263        6.0181342213        6.0181343707
  N        14.5361890925        5.9684274628       16.7794502277
  N        16.7142582768        5.9588221135       18.9714826448
  N        16.7208752960       16.7935097444        8.1538970234
  N        16.7244292437       16.7730282198        3.7832914285
  N        16.7269601459        5.9762917021       14.6017099338
  N         5.8497552126        6.0092115233        3.8235368425
  N         5.9357506057       16.8247178179       14.6411386823
  N         5.9479117546       16.8247348919       19.0102792526
  N         5.8684311335        6.0073726079        8.1910320893
  C        11.3432130044       15.7497734465       15.7497698265
  H        11.3358339160       14.9742605171       14.9742561507
  C        11.2648143641        4.9294766147        4.9294778453
  H        11.2562976865        4.1540108229        4.1540121091
  C         0.5012203761       15.7541832198        4.9290035284
  H         0.5120159427       14.9790120114        4.1532524957
  C         0.5012202251        4.9290048118       15.7541827815
  H         0.5120160315        4.1532538828       14.9790114602
  C        11.3095672236        7.0503711275       15.7509736965
  H        11.3081905026        7.8265357300       14.9761346752
  C        11.3125380110       17.8630440912        4.9325583994
  H        11.3143997227       18.6374677235        4.1559416572
  C         0.4506368927        7.0527805241        4.9373385816
  H         0.4503945440        7.8295318095        4.1630438308
  C         0.5285329511       17.8736036252       15.7583782219
  H         0.5289451475       18.6501802030       14.9839086919
  C        11.3095675400       15.7509729551        7.0503710914
  H        11.3081906839       14.9761341949        7.8265359732
  C        11.3125375380        4.9325586667       17.8630450393
  H        11.3143991622        4.1559418996       18.6374686619
  C         0.5285330414       15.7583779696       17.8736027034
  H         0.5289452650       14.9839080458       18.6501788996
  C         0.4506370256        4.9373375406        7.0527802635
  H         0.4503948519        4.1630423451        7.8295311119
  C        11.2840477677        7.0445908973        7.0445918925
  H        11.2916416424        7.8201138227        7.8201147699
  C        11.3606490576       17.8648249783       17.8648212824
  H        11.3684878713       18.6403117440       18.6403072635
  C         0.4791489517        7.0449245562       17.8682430652
  H         0.4685772477        7.8208400934       18.6433273922
  C         0.4791495140       17.8682439161        7.0449228690
  H         0.4685780839       18.6433286286        7.8208380367
  C        15.6836570025       11.3837420002       15.7302817631
  H        14.9078060220       11.3877526955       14.9551174436
  C        15.6317999691        0.5512310549        4.9062957301
  H        14.8553615730        0.5459906015        4.1317457245
  C         4.8251946535       11.4195213754        4.9462344118
  H         4.0421301368       11.4224503963        4.1783787698
  C         4.8676731640        0.5903170158       15.7776715418
  H         4.0910361495        0.5855050494       15.0032369082
  C        15.6495411934       11.3819325976        7.0281574020
  H        14.8749433716       11.3862034573        7.8045812739
  C        15.6887053008        0.5537102601       17.8361305236
  H        14.9136639355        0.5487407595       18.6121733996
  C         4.8596398211       11.4210439617       17.8785101221
  H         4.0858754570       11.4254364773       18.6557874985
  C         4.8141762933        0.5920776255        7.0729303999
  H         4.0389187378        0.5860900866        7.8486472475
  C         6.9710166746       11.4109904845       15.7596326697
  H         7.7450775393       11.4067424855       14.9826730572
  C         6.9272839887        0.6046395813        4.9558627074
  H         7.7012151779        0.6110112599        4.1787339161
  C        17.7622108391       11.3720884427        4.9107322242
  H        18.5365954580       11.3675532084        4.1341135866
  C        17.8010706352        0.5634830916       15.7179650787
  H        18.5747269069        0.5681671227       14.9406521106
  C         6.9612893368       11.4120033805        7.0397254560
  H         7.7426606354       11.4091806727        7.8092191574
  C         6.9835482434        0.6005714303       17.8919196903
  H         7.7589824535        0.6056100937       18.6674718586
  C        17.7992442464       11.3742780214       17.8451007580
  H        18.5752167528       11.3698703743       18.6201606349
  C        17.7473840721        0.5623229041        7.0210183810
  H        18.5227581378        0.5672043618        7.7966919303
  C        15.6836565035       15.7302824466       11.3837419763
  H        14.9078055969       14.9551180453       11.3877527535
  C        15.6318001183        4.9062950346        0.5512315966
  H        14.8553619717        4.1317447813        0.5459910624
  C         4.8676725062       15.7776732230        0.5903159023
  H         4.0910353169       15.0032387779        0.5855038798
  C         4.8251947101        4.9462350044       11.4195215865
  H         4.0421299716        4.1783795534       11.4224508794
  C         6.9710182245       15.7596350147       11.4109895511
  H         7.7450796681       14.9826760406       11.4067417468
  C         6.9272835383        4.9558633562        0.6046393626
  H         7.7012148349        4.1787346436        0.6110107805
  C        17.8010719883       15.7179654743        0.5634829601
  H        18.5747280748       14.9406523295        0.5681667904
  C        17.7622109273        4.9107321811       11.3720891117
  H        18.5365955600        4.1341135544       11.3675539973
  C        15.6495413521        7.0281575000       11.3819330861
  H        14.8749435823        7.8045814171       11.3862038713
  C        15.6887075054       17.8361317690        0.5537104603
  H        14.9136665853       18.6121750825        0.5487412034
  C         4.8141756008        7.0729307905        0.5920779061
  H         4.0389178809        7.8486474538        0.5860907411
  C         4.8596412004       17.8785125908       11.4210425703
  H         4.0858774670       18.6557905064       11.4254348341
  C         6.9612897385        7.0397257860       11.4120031875
  H         7.7426610617        7.8092194651       11.4091802522
  C         6.9835473314       17.8919216193        0.6005704965
  H         7.7589812260       18.6674740857        0.6056092270
  C        17.7473836108        7.0210183238        0.5623236348
  H        18.5227574692        7.7966920541        0.5672052548
  C        17.7992429837       17.8451023030       11.3742779069
  H        18.5752150125       18.6201626657       11.3698702850
 Xe         5.2645339773       10.2015648743       10.2015648845
