     409
 i =      56, E =    -5133.8601899588
  N         2.8308690455        5.2068290414       15.9764783469
  C         1.5138531566        5.4952994012       16.2329308038
  N        13.6094404351        5.1223400240        5.0786576181
  C        12.2900431002        5.3613931643        5.3769135563
  N        19.6534133858       17.6261843951       16.0357423161
  C        20.9705920520       17.3422342283       16.2989545446
  N         8.7750406456       17.5336363009        5.2167265311
  C        10.0940127495       17.2619643542        5.4808871607
  N        19.4665574576        5.2410205186        6.7875787829
  C        20.7885180058        5.4972400631        6.5186154478
  N         8.6939373903        5.1586072705       17.5672407023
  C        10.0133484118        5.4043375186       17.2837664862
  N         2.9154944731       17.5302798406        6.7842221604
  C         1.5968001317       17.2745185077        6.5070147764
  N        13.7889508181       17.6279385324       17.6043781538
  C        12.4727635535       17.3443776354       17.3380488632
  N        15.8018890978        3.0290368831        5.1838679495
  C        16.0925829566        1.7188033985        5.4659692161
  N        15.9855805535       13.9175368854       16.0317523564
  C        16.2481890905       12.5995911333       16.3048831283
  N        15.9427982790       19.7802381599       17.5836826233
  C        16.1781996636       21.0979311127       17.2860917479
  N        15.8328664329        8.9017513732        6.6689275412
  C        16.1364737347       10.2207282745        6.4393934091
  N         6.5990035480       19.6889703083        5.2177245672
  C         6.2924053065       21.0026702634        5.4663785041
  N         6.6101276856        8.8793106083       16.0082344312
  C         6.3667570363       10.2029393277       16.2825330896
  N         6.5378831738        3.0452071422       17.5740931943
  C         6.2943616771        1.7245666520       17.3018500977
  N         6.6041541212       13.8049631265        6.7396262581
  C         6.3223634816       12.4905960688        6.4609954099
  N         5.0614073296       16.0011576394        3.0433107195
  C         5.3390873069       16.2784511304        1.7280794594
  N         4.9698571871        5.1570194060       13.8384726877
  C         5.2264656913        5.4304399220       12.5187632338
  N        17.4964058519       16.0669175968       19.7498103304
  C        17.2062217483       16.3191385924       21.0662357473
  N        17.2177383446        5.2995396722        8.8829930679
  C        16.9498730377        5.5922060313       10.1967644864
  N         4.9777846067        6.7620331346       19.6934749671
  C         5.2276746131        6.4821667575       21.0133495817
  N         5.0930528496       17.5182801542        8.9225517916
  C         5.3845807008       17.2586773147       10.2369993484
  N        17.3894893212        6.6987778482        3.0171825845
  C        17.1329275350        6.4278084604        1.6999189627
  N        17.4993065836       17.6262129472       13.8751037311
  C        17.2156592074       17.3529007257       12.5603086474
  N         4.9201213838        2.9878182642        6.7098325133
  C         5.2148720665        1.6719112828        6.4537079546
  N         5.1206211106       13.8571706590       17.5696321498
  C         5.3775415293       12.5378290750       17.2964112513
  N        17.4320258029       19.7427522258        6.7644972180
  C        17.1406667132       21.0571018055        6.4946994919
  N        17.4299666674        8.9492718658       17.6469740513
  C        17.2008504070       10.2694542855       17.3526392710
  N         5.1029614070       19.7041328381       16.0111688672
  C         5.3414658916       21.0260088223       16.2845586021
  N         4.9824844831        8.8702877393        5.1692068399
  C         5.2740666733       10.1839260495        5.4398800467
  N        17.3479855624        3.1132860667       15.9290471665
  C        17.1177337702        1.7894729750       16.2151242483
  N        17.4646002763       13.8642784299        5.2103860444
  C        17.1874617467       12.5455087480        5.4662278862
  N         2.9626202251       16.0115452308       17.5675608051
  C         1.6466527613       16.2971780839       17.3048526161
  N        13.7431504606       15.9828094065        6.7549295231
  C        12.4220927831       16.2417933709        6.4841208590
  N        19.5941412710       16.0249958346        5.2023418987
  C        20.9121060917       16.2857676868        5.4776445821
  N         8.8450169145       16.0196599659       16.0545599317
  C        10.1598643507       16.3016188044       16.3277864247
  N        19.5267395355        6.7913827595       17.5303587217
  C        20.8399096593        6.5194704056       17.2470264761
  N         8.6589134146        6.6165127685        6.7240785599
  C         9.9722775079        6.3379007120        6.4432446152
  N         2.7947687913        6.7398829622        5.1995103802
  C         1.4764535528        6.4850516269        5.4813651879
  N        13.6582344714        6.6954124011       16.0144469492
  C        12.3393201168        6.4000883393       16.2560752789
  N        15.8634193609        5.1716719173       19.6977782684
  C        16.1336338614        5.4269948217       21.0155686828
  N        15.8994252355       16.0490660983        8.9330929632
  C        16.1749567749       16.3270576958       10.2493558665
  N        15.8748620636       17.5588019742        3.0633057131
  C        16.1570866535       17.3028595254        1.7456007482
  N        15.7080998419        6.9321504206       13.8400816093
  C        15.9581123646        6.6464802070       12.5198002708
  N         6.4656284680        5.1515321361        3.0089911637
  C         6.2066440922        5.4365760016        1.6941332138
  N         6.7093550541       16.0007650999       13.8740508375
  C         6.4314414645       16.2622078540       12.5547559675
  N         6.6544364482       17.5782983240       19.7400822692
  C         6.3735918888       17.3054260144       21.0560476927
  N         6.4943967462        6.7006978419        8.8687931159
  C         6.2245562476        6.4420257296       10.1888035053
  N        19.5989310267       17.5783586585        6.7614213725
  C        20.9158411808       17.2975797584        6.4971034514
  N         8.8279799154       17.5911030431       17.5953580051
  C        10.1495896866       17.3277038681       17.3331987185
  N         2.7884310078        5.1881837800        6.7603668989
  C         1.4713532579        5.4756419949        6.5034892886
  N        13.6531737995        5.1924559136       17.6180420182
  C        12.3362716273        5.4223925536       17.3078525395
  N         2.9707508389       17.5589267202       16.0051101308
  C         1.6519398376       17.3086226656       16.2852742766
  N        13.7313488560       17.5637336880        5.2255605972
  C        12.4157649494       17.2757719087        5.4867898144
  N        19.5076561871        5.2713062307       15.9410910996
  C        20.8304845912        5.5215193915       16.2141308700
  N         8.6428154341        5.1012170199        5.1297132483
  C         9.9645713031        5.3505869630        5.4018074373
  N         6.6488470320       19.7324903422       17.5758350726
  C         6.3520469493       21.0451291296       17.3050672698
  N         6.5590103769        8.8444388693        6.7030196556
  C         6.3016926263       10.1674853893        6.4435912021
  N         6.4673034982        2.9980277725        5.1460526501
  C         6.2252547434        1.6802444128        5.4330588114
  N         6.6995921171       13.8447094455       16.0369553762
  C         6.4088850334       12.5277152730       16.2966664790
  N        15.8222699537        3.0871357790       17.5138678178
  C        16.1195410325        1.7759486189       17.2480565403
  N        15.9377521672       13.8582921449        6.7932517822
  C        16.1910270486       12.5418676194        6.4991926682
  N        15.8845321100       19.7182374915        5.2006285406
  C        16.1334056140       21.0392764804        5.4709072093
  N        15.9024098898        8.9630961525       16.0678254650
  C        16.2025481426       10.2789730561       16.3204958671
  N        17.4208447477        6.7255034951       19.7129950690
  C        17.1494156276        6.4419161073       21.0255913311
  N        17.4602535816       17.5992600422        8.9184185525
  C        17.1951233677       17.3383785639       10.2384601048
  N         4.9266422180        6.7221604312        3.0144657091
  C         5.2016824553        6.4625300412        1.6950356083
  N         5.1444185836       17.5475210640       13.8719948291
  C         5.4105286048       17.2726610787       12.5558256761
  N        17.4367442191       16.0109262042        3.0619551389
  C        17.1761162596       16.2910862517        1.7453816635
  N        17.2588292675        5.3656179575       13.8346772815
  C        16.9701539509        5.6265576664       12.5188580205
  N         5.1036370450       16.0168295848       19.7261864748
  C         5.3600692811       16.2874195642       21.0462100809
  N         4.9518664413        5.1319471168        8.8806197945
  C         5.2180529033        5.4171574475       10.1964161467
  N        17.4826269530       19.7892221367       16.0119890156
  C        17.1817784828       21.1060847589       16.2584893793
  N        17.3684934034        8.9082844753        5.0976970939
  C        17.1385882122       10.2240772684        5.4108761140
  N         4.9837872724        3.0195718417       16.0160968455
  C         5.2809016121        1.7062423125       16.2843419483
  N         5.0416171503       13.8285246080        5.1901979918
  C         5.3004628125       12.5064467184        5.4515847343
  N        17.3261839292        3.0658315639        6.7703460974
  C        17.0908070815        1.7404752389        6.4988280370
  N        17.5169762628       13.9097848667       17.6092775637
  C        17.2456386832       12.5924813821       17.3365013226
  N         5.0494223823       19.6730971640        6.7780506663
  C         5.2808461709       20.9924306683        6.4859247018
  N         5.0274480563        8.9040989902       17.5362268464
  C         5.3336711931       10.2170104556       17.2809133165
  N        19.4834357485        6.7640426720        5.2013201901
  C        20.7968327997        6.4956989871        5.4862463980
  N         8.7017887028        6.6441925478       15.9459497461
  C        10.0175719678        6.3730061699       16.2250874440
  N         2.8382690023        6.7668678747       17.5288044885
  C         1.5197718924        6.5085703974       17.2510689814
  N        13.6099497457        6.6451317010        6.6629632570
  C        12.2923081291        6.3539670735        6.4147956927
  N         2.9088226763       15.9948063393        5.2088055367
  C         1.5925174617       16.2694861689        5.4809386469
  N        13.8009659913       16.0531935402       16.0690756877
  C        12.4812316841       16.3168018338       16.3344825171
  N        19.6482070519       16.0722758128       17.5952555690
  C        20.9662530079       16.3286971883       17.3170041173
  N         8.7808077634       15.9438867290        6.7378980155
  C        10.0983874096       16.2247577150        6.4746717089
  N         6.6198932682       17.5535163282        3.0599032524
  C         6.3557914246       17.2930833406        1.7388687919
  N         6.5071605564        6.7299573088       13.8276344318
  C         6.2311059305        6.4571437493       12.5110589226
  N         6.5203055965        5.1945627453       19.7037207506
  C         6.2339053728        5.4575865443       21.0175856552
  N         6.6516522635       15.9647219212        8.9107853403
  C         6.4029215063       16.2455813037       10.2313156897
  N        15.9398672751       17.6222688400       19.7476341327
  C        16.1893209574       17.3336871391       21.0653658564
  N        15.6580350007        6.8551372537        8.8654557891
  C        15.9344090850        6.6079952985       10.1873910174
  N        15.8369881736        5.1394467250        3.0038661270
  C        16.1190619833        5.4106976260        1.6904450060
  N        15.9348128928       16.0804195772       13.8933826542
  C        16.1940657778       16.3432503203       12.5721143126
 Zn        14.6701148745       14.7796840679       14.7721002883
 Br        13.3451992530       13.5022720181       13.4417003922
 Zn        14.5286228863        3.8375153630        3.8336659396
 Br        13.2631287319        2.4912916693        2.5055848630
 Zn         3.7620080041       14.7129311697        3.8984384179
 Br         2.4336683832       13.4211834982        2.5746941779
 Zn         3.6839588424        3.8737889073       14.7187133538
 Br         2.3534938515        2.5532745185       13.4253504865
 Zn         7.8411837741        7.9701825037       14.6941400963
 Br         9.1207873891        9.2770924471       13.3483112951
 Zn         7.9083029655       18.8353093847        3.9392118480
 Br         9.2224015766       20.1599908006        2.6329313816
 Zn        18.6671533718        8.0195886478        3.8467113112
 Br        20.0084567404        9.3092605170        2.5378549149
 Zn        18.7891687899       18.9221265845       14.7364351782
 Br        20.1063896570       20.2377082542       13.4247298835
 Zn         7.9111839344       14.6528795084        8.0268222926
 Br         9.2192185166       13.3207925251        9.3338497551
 Zn         7.8256715288        3.8991075044       18.8754037403
 Br         9.1438139614        2.5935646982       20.1938674395
 Zn        18.7993660491       14.7776887630       18.8957421758
 Br        20.1088354070       13.4583691313       20.2110505349
 Zn        18.5546918035        3.9898243090        8.0766460592
 Br        19.8466013868        2.6968092679        9.4342381504
 Zn        14.4167420719        8.0697368976        7.8337250519
 Br        12.8469059417        9.6432312509        8.3226055676
 Zn        14.6574089837       18.9252832760       18.8862124559
 Br        13.3352643828       20.2269398995       20.2053241708
 Zn         3.7088696627        8.0631274911       18.8169842301
 Br         2.4104570320        9.4001967858       20.1240889555
 Zn         3.7827227221       18.8079557773        8.0847011587
 Br         2.4735995941       20.1215448894        9.4054213572
 Zn        14.6376408750       14.7324058363        8.0629780366
 Br        13.3089889212       13.4735406164        9.4057106406
 Zn        14.5478211873        3.8922119305       18.8626935029
 Br        13.2592870224        2.5496761081       20.1713808440
 Zn         3.8255616543       14.7175932847       18.8580959312
 Br         2.4991553026       13.4089158232       20.1666599997
 Zn         3.6423772026        3.8525961949        8.0157620338
 Br         2.3187601442        2.5491700325        9.3326590202
 Zn         7.8191101450        7.9457582253        7.9952914249
 Br         9.1176372993        9.2442640501        9.3333539613
 Zn         7.9443511565       18.8807465957       18.8786738105
 Br         9.2402822265       20.2060007665       20.2008501483
 Zn        18.7170844231        8.0441863826       18.8928539042
 Br        20.0628969144        9.3071588097       20.2227460132
 Zn        18.7435126688       18.8870316457        8.0451306444
 Br        20.0631397718       20.2179590644        9.3391671285
 Zn        14.4789113110        8.1575651223       14.8887567932
 Br        12.8780449467        9.7428153835       14.5421720154
 Zn        14.5836115865       18.8471853358        3.9241876324
 Br        13.2552409887       20.1470129311        2.6087515110
 Zn         3.6615694081        8.0231150627        3.8958837225
 Br         2.3589750598        9.3623978924        2.5935817861
 Zn         3.8362042345       18.8339032460       14.7086888200
 Br         2.5227553216       20.1439800692       13.3869053903
 Zn         8.0021859772       14.7159323100       14.7588688777
 Br         9.3199713791       13.4019766717       13.4453289031
 Zn         7.7512998045        3.8399186521        3.8381926526
 Br         9.0568645495        2.5231795018        2.5164765874
 Zn        18.7387024140       14.7249122298        3.9088181926
 Br        20.0465299105       13.4035117887        2.5951433756
 Zn        18.5888489355        4.0419574123       14.6348518591
 Br        19.8746536070        2.7453648603       13.2745623576
 Zn         5.7652118297        5.9558548830       16.7689923859
 Zn        16.7282390379       16.8534007039       16.8231194645
 Zn        16.5414607152        5.9743204882        5.9050430850
 Zn         5.8441219334       16.7493750962        5.9919286322
 Zn         5.7201814789        5.9181161651        5.9440954856
 Zn        16.6695270571       16.7948180534        5.9969229946
 Zn         5.9049382511       16.7814480258       16.8045206430
 Zn        16.5803562426        6.0338878100       16.8079569062
  N         3.5807994330        5.9781738337       16.7581677443
  N        14.3555543343        5.9012019870        5.8566563283
  N        18.9048268139       16.8553538133       16.8196513561
  N         8.0312498272       16.7363820213        5.9776402492
  N        18.7278836462        6.0049489832        5.9879650065
  N         7.9508591439        5.9097109899       16.7600538715
  N         3.6589447831       16.7580162619        5.9977264723
  N        14.5418059334       16.8461961790       16.8362315135
  N        16.5497820042        3.7935851339        5.9732268987
  N        16.7523565726       14.6610753699       16.8218913753
  N        16.7297849160       19.0384832914       16.8110834911
  N        16.5788863538        8.1592600271        5.8610459666
  N         5.8435765445       18.9343816905        6.0096480599
  N         5.8011451697        8.1455509658       16.7661464599
  N         5.7482376041        3.7787510121       16.7966447095
  N         5.8293142404       14.5632827764        5.9694285612
  N         5.8375708430       16.7728718027        3.7985764754
  N         5.7447352710        5.9428322703       14.5796266839
  N        16.7288924811       16.8541040557       19.0023609888
  N        16.4382895669        6.0633894956        8.1263771537
  N         5.7589244311        5.9824959590       18.9515521448
  N         5.8605784746       16.7355990760        8.1704020314
  N        16.6057500538        5.9204234152        3.7561447311
  N        16.7230302112       16.8552036493       14.6310947037
  N         5.6819197554        3.7394435563        5.9200175439
  N         5.9186117281       14.5975218893       16.8067132309
  N        16.6687773121       18.9839024738        5.9827469153
  N        16.6448880166        8.2105290017       16.8693973320
  N         5.8903001907       18.9715036066       16.7919975835
  N         5.7606037577        8.1106404107        5.9342058442
  N        16.5683044302        3.8467736919       16.7181720049
  N        16.7061836697       14.6081493858        6.0097166857
  N         3.7139591895       16.7765616391       16.7815394373
  N        14.4836476156       16.7816304387        5.9931925728
  N        18.8501311022       16.8062840153        5.9791146436
  N         8.0901028041       16.8001874782       16.8218799094
  N        18.7702026435        6.0368768382       16.7402311675
  N         7.9040009585        5.8675169752        5.9271209918
  N         3.5376426032        5.9544255708        5.9729983697
  N        14.4010045399        5.9653115356       16.8362527292
  N        16.6405904659        5.9569080075       18.9593743606
  N        16.6777306576       16.8193948687        8.1794782019
  N        16.6509614256       16.7790686537        3.8098755018
  N        16.4958446859        6.1517799584       14.5852554588
  N         5.6929263686        5.9302764603        3.7587806400
  N         5.9288727467       16.7778320239       14.6196401887
  N         5.8854744572       16.7973658676       18.9866825703
  N         5.7250489238        5.9094478119        8.1282729216
  C        11.3256017232       15.7534623636       15.7879681815
  H        11.3334052555       14.9707048809       15.0198073476
  C        11.1239968586        4.8161704255        4.8300970831
  H        11.1175712318        4.0599846449        4.0360959452
  C         0.4293357018       15.7314217232        4.9259896314
  H         0.4251305373       14.9610364299        4.1454144457
  C         0.3501829223        4.9655773992       15.6672990376
  H         0.3498246926        4.1969867597       14.8851654288
  C        11.1787366176        6.9018377708       15.6616624575
  H        11.1764449584        7.6559860196       14.8678492907
  C        11.2527866456       17.8282586892        4.9446376382
  H        11.2504016100       18.6183381154        4.1839796697
  C         0.3184436099        7.0362621016        4.9301797357
  H         0.3190276824        7.8036753798        4.1464439839
  C         0.4955620921       17.8743827490       15.7416297856
  H         0.5024510126       18.6488488234       14.9651506241
  C        11.2621406127       15.6717542644        7.0164342700
  H        11.2645401477       14.8818347013        7.7771682310
  C        11.1729983318        4.8811598793       17.8622912670
  H        11.1692136374        4.1372390879       18.6677438487
  C         0.4821657440       15.7655706560       17.8630383285
  H         0.4758458417       14.9930689670       18.6415550719
  C         0.3082630800        4.9453867438        7.0692503702
  H         0.3074607015        4.1785017156        7.8530919177
  C        11.1341705525        6.8727072717        6.9972281194
  H        11.1361426748        7.6390381740        7.7797363344
  C        11.3060370538       17.8909369710       17.8796596962
  H        11.2992313814       18.6737246694       18.6477510007
  C         0.3619041358        7.0597237060       17.8026154886
  H         0.3626821859        7.8275248803       18.5859730642
  C         0.4391808725       17.8320639895        7.0557290643
  H         0.4434490020       18.6033701106        7.8354010948
  C        15.6927602793       11.4471573511       15.7496440388
  H        14.9185260056       11.4607887701       14.9751875952
  C        15.5703709892        0.5481946441        4.9119524531
  H        14.8042166742        0.5325517261        4.1270974984
  C         4.7335982125       11.3542209881        4.9008909326
  H         3.9513975646       11.3669670873        4.1322535976
  C         4.7628758726        0.5324702621       15.7332070122
  H         3.9893753473        0.5106121660       14.9560294714
  C        15.6294626682       11.3807878007        7.0310949040
  H        14.8548113229       11.3801909796        7.8055396424
  C        15.6058750574        0.6119626022       17.8233140973
  H        14.8405696292        0.6055914408       18.6091951234
  C         4.7986306654       11.3843159946       17.8298810284
  H         4.0110082466       11.3945607387       18.5929655475
  C         4.6988391339        0.5047426339        7.0209068742
  H         3.9265196050        0.4922452776        7.7994387056
  C         6.9473407060       11.3586251558       15.7505662644
  H         7.7342206187       11.3494536304       14.9866688352
  C         6.8048166855        0.5289779902        4.8955175321
  H         7.5762235456        0.5416959597        4.1159273473
  C        17.7071031317       11.3865619023        4.8836165136
  H        18.4706980263       11.3900661251        4.0967326610
  C        17.6901370278        0.6323824366       15.6783604402
  H        18.4545250064        0.6380315904       14.8921990900
  C         6.8667677799       11.3201656600        6.9962029770
  H         7.6481957114       11.3079960038        7.7656179486
  C         6.8709201200        0.5786740904       17.8552229698
  H         7.6434647180        0.6012847554       18.6333621790
  C        17.7672017355       11.4245568479       17.9000319801
  H        18.5300113687       11.4149365569       18.6876723586
  C        17.6582301177        0.5894173264        7.0530684905
  H        18.4239346591        0.6044110143        7.8378386725
  C        15.6310048546       15.7898131858       11.4187877938
  H        14.8498581261       15.0200794046       11.4319331922
  C        15.5770220028        4.8656503525        0.5259501234
  H        14.8014593564        4.0900692182        0.5148345069
  C         4.7990688943       15.7344894025        0.5602666092
  H         4.0228490424       14.9597084628        0.5494299520
  C         4.6763667804        4.8710057898       11.3626283649
  H         3.9074641995        4.0892332276       11.3701642581
  C         6.9704408848       15.7079489201       11.3902690925
  H         7.7485743251       14.9351884458       11.3857687010
  C         6.7642871748        4.8908252253        0.5371554633
  H         7.5321947820        4.1077428305        0.5393544056
  C        17.7410486441       15.7549694709        0.5863415441
  H        18.5176111412       14.9805090105        0.5877516159
  C        17.5061568737        5.0600436129       11.3609353368
  H        18.2803829366        4.2823103560       11.3661755987
  C        15.4005456562        7.1745511164       11.3500950713
  H        14.6285628933        7.9497106761       11.3430128378
  C        15.6205920635       17.8656760790        0.5851600949
  H        14.8426690799       18.6387829007        0.5847513399
  C         4.6698344822        7.0279462810        0.5328794181
  H         3.9032691242        7.8122766858        0.5303505952
  C         4.8469656713       17.8146701524       11.3991102763
  H         4.0682260083       18.5871133689       11.4035251248
  C         6.7698109437        7.0066461320       11.3449457326
  H         7.5377757970        7.7896970509       11.3371206077
  C         6.9126165013       17.8501462220        0.5843997121
  H         7.6869428114       18.6267328813        0.5951958129
  C        17.6935870911        6.9849059541        0.5497726811
  H        18.4679786456        7.7616549377        0.5606658070
  C        17.7569772178       17.8928747576       11.3913646045
  H        18.5362416319       18.6643787293       11.3784880032
 Xe        11.6998243377       10.9274900522       11.4095495013
