     409
 i =      56, E =    -5133.8571719799
  N         2.8051830852        5.2119433384       15.9702969104
  C         1.4877206010        5.4983653690       16.2285484346
  N        13.5767010492        5.1215854349        5.0795864963
  C        12.2568685215        5.3568884976        5.3793576307
  N        19.6302046984       17.6255221833       16.0345874967
  C        20.9469359630       17.3419615072       16.2983766020
  N         8.7538917138       17.5398076217        5.2134605397
  C        10.0728847393       17.2681504154        5.4759740186
  N        19.4374529624        5.2410335910        6.7833529388
  C        20.7592920999        5.4988420512        6.5149755024
  N         8.6614724451        5.1660937895       17.5676531283
  C         9.9820326855        5.4020700769       17.2809770736
  N         2.8933064935       17.5340944636        6.7820433325
  C         1.5747865575       17.2769631802        6.5062287270
  N        13.7642339476       17.6360299310       17.6120003319
  C        12.4476877277       17.3531194404       17.3450135985
  N        15.7726765241        3.0278714258        5.1804526521
  C        16.0658678990        1.7179635975        5.4619001862
  N        15.9524659279       13.9190281739       16.0238992315
  C        16.2135996596       12.6005742529       16.2953137710
  N        15.9251062839       19.7810472421       17.5857762988
  C        16.1584931638       21.0989051655       17.2875608456
  N        15.7895003954        8.9015965822        6.6809430638
  C        16.0957853333       10.2197113897        6.4503788420
  N         6.5780331933       19.6949412308        5.2165232299
  C         6.2695673669       21.0082938939        5.4652298738
  N         6.5965069657        8.8881866981       15.9990040183
  C         6.3499891454       10.2106346953       16.2768781906
  N         6.5098228340        3.0499087977       17.5726854182
  C         6.2666893053        1.7293822167       17.2997042980
  N         6.5861328376       13.8103527621        6.7378301835
  C         6.3028498745       12.4960747736        6.4597698243
  N         5.0399769544       16.0055717776        3.0447664399
  C         5.3163524878       16.2821331666        1.7291316543
  N         4.9531146173        5.1694620336       13.8379520007
  C         5.2070658426        5.4404804583       12.5175167740
  N        17.4758635490       16.0622742773       19.7489646577
  C        17.1869946022       16.3136506401       21.0660258551
  N        17.1902494391        5.3004149837        8.8780487299
  C        16.9187577448        5.5825459063       10.1937395771
  N         4.9473456586        6.7721406135       19.6902066758
  C         5.1963692868        6.4924247629       21.0105386266
  N         5.0703941404       17.5229913685        8.9197702662
  C         5.3607264782       17.2635687895       10.2345733416
  N        17.3552683952        6.7025678664        3.0178748209
  C        17.1023440493        6.4302251028        1.6998262234
  N        17.4776691621       17.6277482118       13.8751661033
  C        17.1941435591       17.3537391737       12.5603941623
  N         4.8932817133        2.9926445996        6.7080288119
  C         5.1892491555        1.6768168786        6.4525556444
  N         5.0956707739       13.8609021553       17.5700398729
  C         5.3552016337       12.5423577248       17.2947627173
  N        17.4114047650       19.7435758085        6.7606766710
  C        17.1183096317       21.0575637213        6.4907247475
  N        17.3940258808        8.9481759695       17.6316056737
  C        17.1658336100       10.2686753724       17.3383810922
  N         5.0743432207       19.7090206782       16.0078538944
  C         5.3135523484       21.0309795313       16.2809729735
  N         4.9560104610        8.8771092926        5.1706671036
  C         5.2503531452       10.1902947671        5.4401861323
  N        17.3220133861        3.1152502034       15.9295680202
  C        17.0938520274        1.7913260868       16.2161523786
  N        17.4346593925       13.8613435718        5.2239859542
  C        17.1538158969       12.5428556019        5.4789477020
  N         2.9383627157       16.0134337499       17.5666744570
  C         1.6223943310       16.2981361235       17.3040966952
  N        13.7215810293       15.9904505055        6.7496815308
  C        12.4006109474       16.2487295846        6.4785904310
  N        19.5724469191       16.0215371653        5.2081989054
  C        20.8903432731       16.2844142297        5.4809274308
  N         8.8207463192       16.0288204130       16.0554761102
  C        10.1349335736       16.3116437619       16.3315641594
  N        19.4992168879        6.7949762640       17.5277018968
  C        20.8127681713        6.5226331604       17.2447353228
  N         8.6268979778        6.6132228824        6.7280562290
  C         9.9391502194        6.3293009833        6.4488384437
  N         2.7645654602        6.7479701579        5.1997600547
  C         1.4466434637        6.4905162161        5.4807757827
  N        13.6272508106        6.6798746966       16.0018440567
  C        12.3093322094        6.3827702249       16.2436229195
  N        15.8358659203        5.1734984803       19.6958791794
  C        16.1068007372        5.4282908584       21.0137935391
  N        15.8745693446       16.0489497072        8.9348282836
  C        16.1513893965       16.3277326029       10.2503631153
  N        15.8580740132       17.5548968260        3.0633024562
  C        16.1404977106       17.2976858362        1.7460771463
  N        15.6606677406        6.9224184578       13.8355286728
  C        15.9126620318        6.6251211025       12.5177337166
  N         6.4326615149        5.1585650763        3.0068950831
  C         6.1739632425        5.4449064915        1.6921235029
  N         6.6838000456       16.0087304076       13.8732959246
  C         6.4063326918       16.2694174161       12.5537423507
  N         6.6251381877       17.5814145780       19.7397401343
  C         6.3465358421       17.3083466534       21.0558044355
  N         6.4673167710        6.7083239031        8.8659792539
  C         6.1998851612        6.4492668893       10.1859063908
  N        19.5773696764       17.5781264076        6.7638872507
  C        20.8941066270       17.2980660470        6.4986235833
  N         8.8011316579       17.5995083756       17.5981535732
  C        10.1233796235       17.3367139396       17.3378376769
  N         2.7602184345        5.1936155534        6.7589246887
  C         1.4426762538        5.4795911143        6.5015361511
  N        13.6229624387        5.1902679417       17.6173066416
  C        12.3056883527        5.4150432911       17.3037614293
  N         2.9457865990       17.5612392050       16.0055619025
  C         1.6273638705       17.3101666037       16.2853614711
  N        13.7099890583       17.5681530699        5.2181433380
  C        12.3943756692       17.2812055357        5.4799973101
  N        19.4808165161        5.2725470898       15.9402973767
  C        20.8035719755        5.5232097157       16.2130247997
  N         8.6090664698        5.1069041806        5.1255523373
  C         9.9311453758        5.3491286169        5.4015084453
  N         6.6179891015       19.7375004739       17.5747232503
  C         6.3227437461       21.0500357332       17.3029378004
  N         6.5355988935        8.8498258068        6.7023833110
  C         6.2793547154       10.1729316858        6.4424462442
  N         6.4388834634        3.0039820738        5.1429854017
  C         6.1989807371        1.6860283057        5.4313101743
  N         6.6764617967       13.8528359795       16.0391803734
  C         6.3877473135       12.5352361531       16.2962751946
  N        15.7970361995        3.0879324494       17.5154008717
  C        16.0961532576        1.7769534509       17.2496346454
  N        15.9036191600       13.8577700084        6.8037108170
  C        16.1545279550       12.5410366003        6.5095140811
  N        15.8639576805       19.7169546884        5.1959660709
  C        16.1110808477       21.0382340834        5.4668013324
  N        15.8642495963        8.9644359923       16.0531015218
  C        16.1659035245       10.2795861019       16.3077128694
  N        17.3904730699        6.7299918470       19.7114801053
  C        17.1209933841        6.4447875065       21.0245006871
  N        17.4361614920       17.5987244508        8.9180500593
  C        17.1724005380       17.3382290791       10.2385153585
  N         4.8951875521        6.7319212026        3.0126612038
  C         5.1703197583        6.4723204628        1.6930556912
  N         5.1164478622       17.5533251863       13.8700606628
  C         5.3840489525       17.2784852177       12.5539704984
  N        17.4176936286       16.0040641241        3.0634562156
  C        17.1579389344       16.2841483039        1.7461770711
  N        17.2296355690        5.3707727137       13.8365641230
  C        16.9376239259        5.6196167346       12.5189331466
  N         5.0766553749       16.0178139342       19.7270588068
  C         5.3343577742       16.2890741513       21.0469726408
  N         4.9255840039        5.1392251369        8.8800771516
  C         5.1937678511        5.4241909894       10.1955659922
  N        17.4642679210       19.7915535711       16.0129295777
  C        17.1614861178       21.1080257294       16.2593575751
  N        17.3285409505        8.9051989755        5.1116999386
  C        17.1001884424       10.2214233171        5.4240488077
  N         4.9600016405        3.0249179024       16.0114115141
  C         5.2552840894        1.7113950513       16.2801862612
  N         5.0218349930       13.8346843074        5.1900713809
  C         5.2798961176       12.5126132049        5.4514237446
  N        17.2977971641        3.0665070939        6.7661842439
  C        17.0645799905        1.7409278327        6.4943335154
  N        17.4865823709       13.9085323176       17.5990124903
  C        17.2131512006       12.5915988169       17.3251285969
  N         5.0274176899       19.6776147115        6.7764148787
  C         5.2577384590       20.9971770399        6.4845574236
  N         5.0096465054        8.9076747889       17.5246866879
  C         5.3150399376       10.2214766298       17.2734025120
  N        19.4525713733        6.7670936267        5.2005254087
  C        20.7665799886        6.4992067851        5.4844020201
  N         8.6747003999        6.6416089713       15.9355224492
  C         9.9884902167        6.3617542084       16.2146705637
  N         2.8118268219        6.7736594521       17.5207173672
  C         1.4933134464        6.5129178863       17.2454863938
  N        13.5748116614        6.6362135310        6.6721373505
  C        12.2582636621        6.3426951047        6.4232985103
  N         2.8869222699       15.9972252190        5.2085877484
  C         1.5705947836       16.2707880510        5.4813256859
  N        13.7768610071       16.0639136937       16.0747767458
  C        12.4566838715       16.3269021524       16.3401249423
  N        19.6244983377       16.0692402380       17.5918001669
  C        20.9424948290       16.3271292712       17.3151643564
  N         8.7607753052       15.9510721332        6.7354812160
  C        10.0777338040       16.2318333004        6.4701911358
  N         6.5980464300       17.5590443964        3.0590414522
  C         6.3324007213       17.2975243039        1.7385057470
  N         6.4898807799        6.7437505339       13.8223162748
  C         6.2112275776        6.4675008511       12.5071718460
  N         6.4871288111        5.2020733101       19.7015996424
  C         6.2010142323        5.4662750481       21.0152380838
  N         6.6315316252       15.9711216837        8.9094860412
  C         6.3804765320       16.2517819305       10.2298741488
  N        15.9223986362       17.6207971246       19.7487344839
  C        16.1719680613       17.3301186016       21.0659811852
  N        15.6121391930        6.8400348889        8.8656596576
  C        15.8902515368        6.5834773107       10.1855322784
  N        15.8050337631        5.1411745774        3.0024624248
  C        16.0898464930        5.4117692248        1.6893288934
  N        15.9117503679       16.0831923536       13.8936058126
  C        16.1714264670       16.3452250847       12.5726627378
 Zn        14.6403489145       14.7925731466       14.7724628973
 Br        13.2241189456       13.5833512288       13.4653791182
 Zn        14.4968815670        3.8385160873        3.8329074016
 Br        13.2324475243        2.4911228242        2.5051520853
 Zn         3.7393008627       14.7160070740        3.8987849664
 Br         2.4115007317       13.4245531787        2.5745871686
 Zn         3.6683866849        3.8834042687       14.7139805399
 Br         2.3370894279        2.5633792537       13.4192819969
 Zn         7.8369249928        7.9893586399       14.6759628051
 Br         9.1398595354        9.2783063985       13.3246611045
 Zn         7.8907847108       18.8415215080        3.9371896361
 Br         9.2022585887       20.1665752721        2.6297539877
 Zn        18.6274117539        8.0228647982        3.8519708141
 Br        19.9673460862        9.3174154650        2.5453552128
 Zn        18.7715627370       18.9241584277       14.7366590454
 Br        20.0855178615       20.2381931468       13.4214367073
 Zn         7.8950725400       14.6586195144        8.0247718290
 Br         9.1889354605       13.3213424749        9.3384976120
 Zn         7.7914437010        3.9057672444       18.8756519057
 Br         9.1093595351        2.6002471504       20.1947820704
 Zn        18.7728830078       14.7728198433       18.8889821900
 Br        20.0816548696       13.4501825685       20.2016201827
 Zn        18.5250884875        3.9912341121        8.0724087702
 Br        19.8201127091        2.6966931212        9.4266911231
 Zn        14.3612789602        8.0768048360        7.8440872562
 Br        12.7264381347        9.6358432849        8.2295673001
 Zn        14.6407387144       18.9281069832       18.8906459735
 Br        13.3224762461       20.2306905877       20.2128487409
 Zn         3.6820686760        8.0703604227       18.8038868695
 Br         2.3841310928        9.4112339407       20.1085445482
 Zn         3.7580356514       18.8128528194        8.0809134821
 Br         2.4478260336       20.1242306739        9.4027772852
 Zn        14.6020880915       14.7417493943        8.0660668483
 Br        13.1856223199       13.5491685723        9.3897590850
 Zn        14.5165159246        3.8934336511       18.8623276822
 Br        13.2340455492        2.5482720341       20.1736186711
 Zn         3.7948962409       14.7190859259       18.8577916893
 Br         2.4709226004       13.4102914287       20.1674652681
 Zn         3.6203156797        3.8585065408        8.0151353720
 Br         2.2943671414        2.5556303845        9.3310583604
 Zn         7.7966089834        7.9523176178        7.9984498028
 Br         9.0963957748        9.2483431773        9.3462004920
 Zn         7.9085323473       18.8861571304       18.8797206377
 Br         9.2072488783       20.2116417856       20.2002564356
 Zn        18.6798231055        8.0486759265       18.8862315134
 Br        20.0269973871        9.3151710415       20.2127964587
 Zn        18.7202592340       18.8886140920        8.0443964978
 Br        20.0390406644       20.2173026893        9.3411431082
 Zn        14.4198028172        8.1671131727       14.8832527165
 Br        12.7527606593        9.7385316473       14.6998472541
 Zn        14.5622038125       18.8466716774        3.9143206858
 Br        13.2377374607       20.1482303222        2.5984528885
 Zn         3.6285648621        8.0347125431        3.8969752123
 Br         2.3270490159        9.3738875798        2.5944677522
 Zn         3.8035865732       18.8368918894       14.7077199424
 Br         2.4911216005       20.1476598311       13.3861825188
 Zn         7.9744480687       14.7233273548       14.7595812616
 Br         9.2804097118       13.4041368030       13.4396487704
 Zn         7.7240696754        3.8454164240        3.8344649307
 Br         9.0265315949        2.5273267295        2.5119148916
 Zn        18.7165123598       14.7189126850        3.9219790259
 Br        20.0208341266       13.3943843070        2.6076588371
 Zn        18.5583573890        4.0458607731       14.6334621976
 Br        19.8470745519        2.7477012903       13.2761468882
 Zn         5.7394299304        5.9637989092       16.7650601749
 Zn        16.7108821601       16.8596041378       16.8239983574
 Zn        16.5013513621        5.9738446198        5.9079537398
 Zn         5.8285422647       16.7570503630        5.9909290077
 Zn         5.6841840803        5.9294589747        5.9416176935
 Zn        16.6531620078       16.7975423271        5.9964687587
 Zn         5.8867337816       16.7868848402       16.8041300050
 Zn        16.5504689451        6.0366879107       16.7995076134
  N         3.5548666461        5.9856120484       16.7499423778
  N        14.3215367894        5.8984912926        5.8613269738
  N        18.8814747497       16.8531553800       16.8167367902
  N         8.0106617538       16.7432215452        5.9756805050
  N        18.6976019083        6.0058747458        5.9858006648
  N         7.9212312529        5.9168759656       16.7566220056
  N         3.6372674592       16.7618281152        5.9960593994
  N        14.5176031733       16.8556434269       16.8428497029
  N        16.5197279251        3.7932156720        5.9699105460
  N        16.7216404356       14.6616301224       16.8138666667
  N        16.7126367429       19.0402079840       16.8130259622
  N        16.5365171353        8.1576842336        5.8738786690
  N         5.8228043178       18.9397121340        6.0083117982
  N         5.7857949888        8.1518165458       16.7541628697
  N         5.7225592685        3.7840337744       16.7936023431
  N         5.8108214567       14.5691728026        5.9682953391
  N         5.8165518752       16.7781319631        3.7987912817
  N         5.7287947609        5.9569330499       14.5768210418
  N        16.7094781720       16.8519660171       19.0025962404
  N        16.4032804040        6.0608939104        8.1237801575
  N         5.7274935942        5.9909066063       18.9487843142
  N         5.8399985457       16.7412931202        8.1685109384
  N        16.5709208370        5.9239422220        3.7559261909
  N        16.7006041974       16.8579748025       14.6313678508
  N         5.6533366253        3.7450870187        5.9170126150
  N         5.8935707408       14.6035293650       16.8090646354
  N        16.6490927615       18.9837234013        5.9784263089
  N        16.6075337317        8.2107546113       16.8542687393
  N         5.8600861738       18.9764220344       16.7902311096
  N         5.7343440690        8.1168800887        5.9351724209
  N        16.5418789010        3.8480312564       16.7189743178
  N        16.6759469008       14.6067389503        6.0216424991
  N         3.6898108888       16.7790377622       16.7813498095
  N        14.4625774360       16.7875008449        5.9869935695
  N        18.8285219941       16.8037589479        5.9842388500
  N         8.0649585996       16.8086767376       16.8225573166
  N        18.7429962557        6.0393591911       16.7381351329
  N         7.8706807844        5.8718989889        5.9250062108
  N         3.5081704546        5.9622770003        5.9726568696
  N        14.3707895123        5.9591610752       16.8308508746
  N        16.6108222618        5.9608867618       18.9573175428
  N        16.6528895577       16.8191318674        8.1799838780
  N        16.6325518151       16.7743441482        3.8104938243
  N        16.4593914144        6.1550592191       14.5838511471
  N         5.6606376241        5.9382128300        3.7566453328
  N         5.9016855122       16.7847721176       14.6183348809
  N         5.8565120486       16.7995375831       18.9869168219
  N         5.6971996640        5.9171644947        8.1263632842
  C        11.3009467763       15.7644407239       15.7927392330
  H        11.3103240024       14.9830400016       15.0234939403
  C        11.0906081769        4.8154192322        4.8288361128
  H        11.0843777664        4.0631075876        4.0312607601
  C         0.4074484464       15.7306279804        4.9283658598
  H         0.4031301156       14.9593585539        4.1486071224
  C         0.3232795321        4.9671309205       15.6656367086
  H         0.3221871145        4.1977944805       14.8842172365
  C        11.1497778797        6.8782654344       15.6431845446
  H        11.1466419791        7.6248004063       14.8431556009
  C        11.2313235150       17.8336332145        4.9381012242
  H        11.2284846337       18.6231471325        4.1769356410
  C         0.2881671630        7.0413663716        4.9298502459
  H         0.2889142887        7.8099484656        4.1473291992
  C         0.4712932102       17.8758144323       15.7417686199
  H         0.4780495138       18.6509760446       14.9659254014
  C        11.2409248470       15.6791666591        7.0116145702
  H        11.2444047679       14.8905921145        7.7735415022
  C        11.1412175708        4.8794655001       17.8619623327
  H        11.1366038459        4.1408889236       18.6722006558
  C         0.4585090673       15.7646830980       17.8614953105
  H         0.4528556968       14.9915260988       18.6393796576
  C         0.2794721911        4.9473705266        7.0654748861
  H         0.2789498718        4.1795856447        7.8484631356
  C        11.1000473064        6.8556737578        7.0098585622
  H        11.1008490010        7.6167274438        7.7967847558
  C        11.2799991317       17.8989512756       17.8859844304
  H        11.2724500129       18.6809607629       18.6547634172
  C         0.3355530008        7.0637460899       17.7980947887
  H         0.3373792160        7.8326522243       18.5803126898
  C         0.4174416185       17.8343441196        7.0553935533
  H         0.4219438029       18.6064927728        7.8342281629
  C        15.6553121538       11.4491112368       15.7403133834
  H        14.8763423038       11.4635072603       14.9709795432
  C        15.5457650665        0.5463316517        4.9081622280
  H        14.7792791609        0.5292249405        4.1236870753
  C         4.7109305660       11.3611033846        4.9014892572
  H         3.9279500390       11.3747337418        4.1336248902
  C         4.7370712960        0.5379510341       15.7283785939
  H         3.9646444054        0.5169005500       14.9501552770
  C        15.5886515959       11.3809098901        7.0394458698
  H        14.8093283090       11.3806963301        7.8088769777
  C        15.5846310231        0.6121519882       17.8250527684
  H        14.8197317412        0.6044989359       18.6113054757
  C         4.7775400211       11.3866791757       17.8246779697
  H         3.9889896312       11.3936829520       18.5868765418
  C         4.6747081485        0.5089775643        7.0198752888
  H         3.9025873070        0.4955630751        7.7986378013
  C         6.9292352260       11.3682881849       15.7485032100
  H         7.7172267002       11.3630116926       14.9857380019
  C         6.7801320159        0.5353069305        4.8942346953
  H         7.5514056766        0.5490537479        4.1145952099
  C        17.6721700115       11.3826636406        4.8975617822
  H        18.4372660795       11.3841320608        4.1118556986
  C        17.6677469543        0.6350965567       15.6790262721
  H        18.4316940732        0.6421008816       14.8924501995
  C         6.8463653967       11.3249344911        6.9943366642
  H         7.6281349802       11.3116470875        7.7633243483
  C         6.8417988731        0.5831766004       17.8538387597
  H         7.6134718896        0.6053526250       18.6329106167
  C        17.7342855905       11.4225085839       17.8865016555
  H        18.4981210064       11.4110164745       18.6733528981
  C        17.6341498586        0.5908942832        7.0485935875
  H        18.3999799373        0.6079440933        7.8332381654
  C        15.6068587587       15.7922336308       11.4200934739
  H        14.8210186322       15.0275366146       11.4340504089
  C        15.5504605978        4.8659064286        0.5239105057
  H        14.7758511372        4.0894129168        0.5116990235
  C         4.7755948758       15.7365233634        0.5622763873
  H         4.0003297283       14.9608689650        0.5531043648
  C         4.6547159696        4.8789031771       11.3633711164
  H         3.8860034952        4.0968700133       11.3738467643
  C         6.9470462862       15.7154464005       11.3898654558
  H         7.7257528601       14.9433420989       11.3868649963
  C         6.7307733926        4.8989163243        0.5348183414
  H         7.4978896997        4.1150585075        0.5363850060
  C        17.7213235655       15.7479366814        0.5860456544
  H        18.4966975436       14.9723002775        0.5863559493
  C        17.4788108205        5.0564047530       11.3602980927
  H        18.2598740216        4.2854522524       11.3669311864
  C        15.3433534953        7.1320408465       11.3474615234
  H        14.5641534069        7.8976217214       11.3392968010
  C        15.6045676186       17.8620896046        0.5862178156
  H        14.8279552560       18.6365285417        0.5865157428
  C         4.6395929517        7.0386703571        0.5305853367
  H         3.8741427842        7.8240213333        0.5283685165
  C         4.8211326482       17.8191315921       11.3961980537
  H         4.0415434094       18.5907180552       11.3993504831
  C         6.7477688604        7.0151803855       11.3397888153
  H         7.5162479139        7.7976268962       11.3288922361
  C         6.8870142616       17.8542767002        0.5829195783
  H         7.6608216568       18.6314763285        0.5918159084
  C        17.6637874912        6.9875993327        0.5498238120
  H        18.4372905286        7.7651914318        0.5619769895
  C        17.7353659286       17.8927960751       11.3909369023
  H        18.5149206394       18.6641155252       11.3774008830
 Xe        14.0550663969       10.5854928228       11.4500396458
