     409
 i =      56, E =    -5133.8846178971
  N         2.7831823896        5.2284580973       16.0258439323
  C         1.4642120095        5.4905316587       16.2955798948
  N        13.5925868851        5.1954456954        5.2131769931
  C        12.2759572321        5.4729941878        5.4807503104
  N        19.4939727186       17.5745224597       16.0253739137
  C        20.8132679345       17.3136360801       16.2979983102
  N         8.6810300068       17.5965940408        5.2183764534
  C         9.9977413952       17.3188043262        5.4858235476
  N        19.4614527833        5.1918216232        6.7609365659
  C        20.7779038626        5.4716103605        6.4947050314
  N         8.6428320136        5.2261568440       17.5869098156
  C         9.9610868995        5.4895839603       17.3148266978
  N         2.8105525188       17.6049898451        6.7617070727
  C         1.4937317085       17.3307800748        6.4905467576
  N        13.6404623160       17.5618940785       17.5845421845
  C        12.3220226440       17.3009941827       17.3112250191
  N        15.7459367314        3.0336811032        5.2146479255
  C        16.0230290044        1.7166279717        5.4826217189
  N        15.7918795648       13.8568022292       16.0220457392
  C        16.0584975653       12.5384634669       16.2910924418
  N        15.7840278391       19.7151092673       17.5864581034
  C        16.0423000316       21.0342028876       17.3118131039
  N        15.7489334726        8.9023520295        6.7548374897
  C        16.0217440316       10.2182356398        6.4804865579
  N         6.5238933221       19.7613538255        5.2153364795
  C         6.2416591233       21.0783318963        5.4795220421
  N         6.4934115783        8.9338853989       16.0265339624
  C         6.2288643197       10.2525911051       16.2976862171
  N         6.4879648684        3.0788964392       17.5913766128
  C         6.2258948088        1.7598910848       17.3200260597
  N         6.5139700882       13.8905700467        6.7621406333
  C         6.2387521550       12.5738321367        6.4920734257
  N         4.9751249178       16.0570841816        3.0548261755
  C         5.2475754494       16.3272185960        1.7380621107
  N         4.9349100027        5.2262593337       13.8764395069
  C         5.2032301617        5.4966535699       12.5585366496
  N        17.3517812615       16.0007620035       19.7373431638
  C        17.0821373699       16.2700101240       21.0556103238
  N        17.3088680827        5.1952742339        8.9160655784
  C        17.0332974464        5.4579759414       10.2339092177
  N         4.9269068952        6.7893462419       19.7381127662
  C         5.1957228531        6.5204928936       21.0564645938
  N         4.9659280235       17.6012249143        8.9195309997
  C         5.2378189461       17.3330863032       10.2369918740
  N        17.2976547333        6.7410335306        3.0546146935
  C        17.0271187802        6.4707886902        1.7373866895
  N        17.3449572744       17.5647731511       13.8726405885
  C        17.0792237762       17.2908284886       12.5549353518
  N         4.9284737267        3.0723621449        6.7599894442
  C         5.2056929236        1.7556724541        6.4901865665
  N         4.9646623795       13.8970778110       17.5889663518
  C         5.2270080840       12.5782504444       17.3166617153
  N        17.3307564301       19.7231618878        6.7637919726
  C        17.0529086046       21.0395440685        6.4954827437
  N        17.3190134186        8.8946353652       17.5843509732
  C        17.0591373790       10.2133778834       17.3100004538
  N         4.9688888389       19.7540393272       16.0280102808
  C         5.2294464036       21.0729536435       16.3013383172
  N         4.9327385032        8.9385804632        5.2125271155
  C         5.2106463214       10.2557151075        5.4793822840
  N        17.3056486284        3.0389430919       16.0221762491
  C        17.0401626581        1.7203458288       16.2917100529
  N        17.3456411175       13.8518021727        5.2150605202
  C        17.0622446326       12.5348444634        5.4769087410
  N         2.8179888620       16.0540731252       17.5912020317
  C         1.4995201021       16.3159761267       17.3186298870
  N        13.6317848224       16.0149158729        6.7684998167
  C        12.3150649733       16.2909068634        6.4993679231
  N        19.5006110843       16.0185951915        5.2123053589
  C        20.8170228136       16.2998120272        5.4777132730
  N         8.6762999953       16.0388011317       16.0240438198
  C         9.9956823077       16.3016522275       16.2937008449
  N        19.4591399386        6.7417228880       17.5886635695
  C        20.7778000840        6.4842886692       17.3141690671
  N         8.6421633307        6.7761856247        6.7641266359
  C         9.9588550582        6.5008861811        6.4945000296
  N         2.7709465245        6.7849221628        5.2172256537
  C         1.4542400015        6.5065213461        5.4843622854
  N        13.6045761940        6.7598079781       16.0283930592
  C        12.2858620193        6.4947119654       16.2985219424
  N        15.7461576795        5.1845887646       19.7372953874
  C        16.0136618614        5.4550858571       21.0556141626
  N        15.7935069366       16.0038920791        8.9169652522
  C        16.0661777953       16.2717441638       10.2343392629
  N        15.7944813485       17.5559734523        3.0534479880
  C        16.0663805029       17.2856756646        1.7364949943
  N        15.7487295191        6.7378792406       13.8741988738
  C        16.0142237068        6.4652564520       12.5562577081
  N         6.4804292380        5.2359853389        3.0552424499
  C         6.2101995159        5.5065164028        1.7381141796
  N         6.5207757868       16.0454135182       13.8749412185
  C         6.2526073782       16.3166640106       12.5573956954
  N         6.5364678247       17.6078641797       19.7386983429
  C         6.2664587613       17.3395282596       21.0571008875
  N         6.4893242812        6.7788883582        8.9190115409
  C         6.2188150507        6.5103190816       10.2367828760
  N        19.4928401506       17.5781313462        6.7644677876
  C        20.8120334275       17.3168365240        6.4921473342
  N         8.6846104688       17.5960482490       17.5783930681
  C        10.0009764121       17.3177356191       17.3090920369
  N         2.7770274542        5.2285447540        6.7716540877
  C         1.4585255066        5.4907265132        6.4998211699
  N        13.5985735820        5.1988933026       17.5798226706
  C        12.2819900055        5.4767087607       17.3120186956
  N         2.8121947995       17.6057717631       16.0317822367
  C         1.4952490523       17.3298767267       16.3012826959
  N        13.6371774621       17.5647576291        5.2065429643
  C        12.3187818005       17.3037201878        5.4808234059
  N        19.4670285674        5.1895832763       16.0296844394
  C        20.7833196330        5.4702186606       16.2969867162
  N         8.6365324303        5.2239415856        5.2058265068
  C         9.9550333909        5.4866227763        5.4776754115
  N         6.5278549493       19.7606797921       17.5819480460
  C         6.2463874749       21.0776342709       17.3160398536
  N         6.4916619493        8.9336153211        6.7660075401
  C         6.2274708730       10.2522307530        6.4941442158
  N         6.4825245437        3.0792174407        5.2015122726
  C         6.2205396769        1.7603557413        5.4735582054
  N         6.5163617457       13.8913064933       16.0292815906
  C         6.2406916001       12.5744590473       16.2990328219
  N        15.7482042104        3.0328311534       17.5776192172
  C        16.0245273971        1.7159342604       17.3077038080
  N        15.7759329569       13.8571388979        6.7568751723
  C        16.0372016938       12.5388275859        6.4832495065
  N        15.7815251140       19.7158395574        5.2022529501
  C        16.0403665212       21.0349274941        5.4768283416
  N        15.7703464730        8.9006474310       16.0219798848
  C        16.0472019294       10.2172852039       16.2907356684
  N        17.3025048304        6.7399638611       19.7396459483
  C        17.0296605473        6.4704615567       21.0566576419
  N        17.3447950736       17.5639886860        8.9164373856
  C        17.0792883531       17.2899562925       10.2340655303
  N         4.9216272958        6.7881671003        3.0566461651
  C         5.1927135434        6.5203027418        1.7383019863
  N         4.9681037802       17.6027056189       13.8751962224
  C         5.2387847607       17.3339338666       12.5575421824
  N        17.3490502350       15.9992209658        3.0565721188
  C        17.0809799400       16.2688906123        1.7378509547
  N        17.3129326664        5.1911362661       13.8723424775
  C        17.0365586713        5.4563638084       12.5549371090
  N         4.9765649683       16.0561584571       19.7404826285
  C         5.2481340802       16.3264584464       21.0575045395
  N         4.9312642231        5.2254748997        8.9200721993
  C         5.2015029536        5.4962620161       10.2375089308
  N        17.3341167855       19.7225630922       16.0258614643
  C        17.0552642037       21.0390259679       16.2936011222
  N        17.3120995341        8.8944755773        5.2066618735
  C        17.0447812663       10.2134661697        5.4728091948
  N         4.9329814860        3.0718019304       16.0341490286
  C         5.2104831234        1.7550674887       16.3040180222
  N         4.9614724730       13.8965959607        5.2032147964
  C         5.2243571172       12.5776995841        5.4751571059
  N        17.3031210694        3.0389859965        6.7696643677
  C        17.0385553767        1.7205645561        6.4986196886
  N        17.3484570498       13.8520236938       17.5780567000
  C        17.0734135403       12.5349730004       17.3077405057
  N         4.9652842747       19.7550753275        6.7686547070
  C         5.2249135577       21.0738896679        6.4942832168
  N         4.9361575044        8.9391982198       17.5822337706
  C         5.2131580835       10.2562543863       17.3136207583
  N        19.4549816102        6.7442432677        5.2026818852
  C        20.7735047881        6.4858701234        5.4777931051
  N         8.6472531297        6.7798390483       16.0298566515
  C         9.9643108432        6.5049578907       16.2989768719
  N         2.7748096552        6.7847231215       17.5805300608
  C         1.4584766713        6.5062048680       17.3111652608
  N        13.5982719085        6.7537339867        6.7670286835
  C        12.2798393524        6.4895285700        6.4957374840
  N         2.8166027465       16.0537710112        5.2015212768
  C         1.4981071683       16.3170028400        5.4730242280
  N        13.6344294819       16.0098806992       16.0248505448
  C        12.3175816920       16.2870272795       16.2938726715
  N        19.5020195453       16.0161435875       17.5794549964
  C        20.8183712366       16.2972295444       17.3131597653
  N         8.6746128027       16.0390367276        6.7717632942
  C         9.9935943844       16.3028156519        6.5012404386
  N         6.5341233391       17.6092592938        3.0582928585
  C         6.2656167906       17.3405182483        1.7394576098
  N         6.4924015374        6.7794431055       13.8752643374
  C         6.2204095164        6.5106681917       12.5577553397
  N         6.4862927923        5.2370577248       19.7406339035
  C         6.2133527771        5.5067281334       21.0575766142
  N         6.5185384327       16.0430452158        8.9193270163
  C         6.2515372514       16.3155516141       10.2368545296
  N        15.7969490758       17.5574819585       19.7386110947
  C        16.0674849361       17.2867419108       21.0558501111
  N        15.7443675132        6.7429549906        8.9184814125
  C        16.0104054700        6.4659652247       10.2352786108
  N        15.7417550387        5.1856695815        3.0558460177
  C        16.0112468553        5.4553645851        1.7375584907
  N        15.7926593251       16.0064404708       13.8724514597
  C        16.0656236413       16.2732384796       12.5549481827
 Zn        14.4971206789       14.7173982207       14.7299990650
 Br        13.1822420892       13.4040340895       13.4146912323
 Zn        14.4490435384        3.8958672519        3.9247998951
 Br        13.1332004565        2.5813369919        2.6111557388
 Zn         3.6786948452       14.7656110165        3.9052529466
 Br         2.3617350301       13.4539890025        2.5902913671
 Zn         3.6422578014        3.9354336545       14.7360033131
 Br         2.3277359026        2.6195586755       13.4226460177
 Zn         7.7872479048        8.0683953729       14.7336482030
 Br         9.1082894835        9.3801904089       13.4225106332
 Zn         7.8267112146       18.8957047465        3.9324301335
 Br         9.1422446574       20.2098568132        2.6174100083
 Zn        18.5970806698        8.0305121175        3.9059057769
 Br        19.9101517751        9.3453316599        2.5904362800
 Zn        18.6260818659       18.8676696479       14.7314993556
 Br        19.9451832198       20.1787060917       13.4180807870
 Zn         7.8042020450       14.7471849677        8.0588440979
 Br         9.1197980417       13.4303078593        9.3710138877
 Zn         7.7804651624        3.9433104924       18.8830362493
 Br         9.0890904922        2.6253190547       20.2002078878
 Zn        18.6476287064       14.7144675416       18.8698494101
 Br        19.9603107692       13.3944793683       20.1801045922
 Zn        18.6030624044        3.9009154690        8.0565508264
 Br        19.9158312085        2.5859748103        9.3717624252
 Zn        14.4634773950        8.0507070865        8.0591886273
 Br        13.1236624630        9.3536648007        9.3602592300
 Zn        14.5007169789       18.8472733974       18.8820285540
 Br        13.1902095544       20.1642918696       20.1986900727
 Zn         3.6338057722        8.0783675909       18.8728393566
 Br         2.3233138791        9.3998046289       20.1843418620
 Zn         3.6732162088       18.8906216462        8.0593004888
 Br         2.3595446343       20.2065677287        9.3741088683
 Zn        14.4941679413       14.7177952477        8.0579270057
 Br        13.1888757478       13.3969452022        9.3757165179
 Zn        14.4519830303        3.8961307428       18.8705285069
 Br        13.1336916065        2.5818584529       20.1810118748
 Zn         3.6801463698       14.7652259581       18.8836692608
 Br         2.3656497902       13.4539851236       20.2019698464
 Zn         3.6376817664        3.9344156974        8.0588207688
 Br         2.3251186227        2.6179865234        9.3734564644
 Zn         7.7850795308        8.0675087266        8.0578136139
 Br         9.0958611260        9.3831747290        9.3749005417
 Zn         7.8303933296       18.8942945137       18.8702519607
 Br         9.1476676046       20.2102460943       20.1804737113
 Zn        18.6013833728        8.0288396823       18.8834072891
 Br        19.9157742292        9.3421974982       20.1995279189
 Zn        18.6239678373       18.8699622651        8.0567278235
 Br        19.9422488951       20.1807776411        9.3713012860
 Zn        14.4721451390        8.0474654646       14.7305419602
 Br        13.1738691903        9.3676701858       13.4055586038
 Zn        14.4989285897       18.8472522838        3.9042740782
 Br        13.1870575783       20.1642353727        2.5892890225
 Zn         3.6302934412        8.0771095771        3.9261776135
 Br         2.3188619351        9.3973888183        2.6134614088
 Zn         3.6758293799       18.8914862355       14.7344010259
 Br         2.3620443043       20.2088048849       13.4212403007
 Zn         7.8064324827       14.7504023105       14.7320886089
 Br         9.1193795774       13.4307692128       13.4200111251
 Zn         7.7750987188        3.9427052499        3.9065417104
 Br         9.0839195250        2.6238333546        2.5908556585
 Zn        18.6460752846       14.7142581373        3.9293141106
 Br        19.9565927937       13.3961722217        2.6139809348
 Zn        18.6061228107        3.8990596191       14.7326897399
 Br        19.9195263682        2.5823153636       13.4201029232
 Zn         5.7126559548        6.0069458013       16.8121596754
 Zn        16.5659458474       16.7803649826       16.8090162091
 Zn        16.5223469206        5.9634317103        5.9919213759
 Zn         5.7429614593       16.8264540608        5.9917935283
 Zn         5.7043066996        6.0061216227        5.9920405503
 Zn        16.5634349350       16.7814930910        5.9900442174
 Zn         5.7457849324       16.8272088769       16.8119209070
 Zn        16.5332145337        5.9609689809       16.8097920108
  N         3.5258435641        6.0103139045       16.8030799263
  N        14.3417801214        5.9712050699        5.9913343960
  N        18.7515080506       16.7899591781       16.8006310480
  N         7.9310546927       16.8214350201        5.9957594654
  N        18.7111314210        5.9626833261        5.9793854629
  N         7.8981256716        6.0058770105       16.8093484834
  N         3.5602863285       16.8319188258        5.9816466170
  N        14.3841200625       16.7818818732       16.8061076622
  N        16.5214243658        3.7827146457        5.9929747996
  N        16.5718897116       14.6007431684       16.8004997700
  N        16.5644604146       18.9717516223       16.8082350184
  N        16.5296035851        8.1512904696        5.9830025574
  N         5.7502862211       19.0116611437        5.9949685669
  N         5.7117976583        8.1901991002       16.8037772327
  N         5.7069230206        3.8219832360       16.8132223662
  N         5.7408417103       14.6404086541        5.9823063901
  N         5.7533483074       16.8326937979        3.8034108900
  N         5.7145605232        6.0024470588       14.6228901530
  N        16.5740367312       16.7794199198       18.9913447464
  N        16.5296045086        5.9727627768        8.1706312486
  N         5.7076770271        6.0128914768       18.9928025070
  N         5.7409000674       16.8208960300        8.1726906534
  N        16.5201769980        5.9635160584        3.8021501515
  N        16.5664851399       16.7877958224       14.6195748866
  N         5.7020287394        3.8223211672        5.9802625240
  N         5.7438719683       14.6410201128       16.8098647705
  N        16.5611184697       18.9724309630        5.9812998812
  N        16.5401951658        8.1506411079       16.8050238457
  N         5.7535069186       19.0109899000       16.8027647388
  N         5.7086145358        8.1897023080        5.9906894776
  N        16.5245352366        3.7821205997       16.8001368911
  N        16.5665046364       14.6009738450        5.9893553597
  N         3.5619170326       16.8332339364       16.8123664319
  N        14.3811463107       16.7860023697        5.9861093505
  N        18.7500794741       16.7929124114        5.9903479669
  N         7.9337661763       16.8212937757       16.8011827701
  N        18.7163054314        5.9598041019       16.8114855170
  N         7.8922233753        6.0032587018        5.9843860661
  N         3.5207420111        6.0105349562        5.9956586590
  N        14.3481897151        5.9758092464       16.8033674486
  N        16.5258708615        5.9619117628       18.9918028133
  N        16.5665831986       16.7862870029        8.1701075816
  N        16.5706548845       16.7779257955        3.8017724837
  N        16.5339346748        5.9667232676       14.6202959290
  N         5.7010050805        6.0111581695        3.8028708818
  N         5.7437651085       16.8232371062       14.6222359279
  N         5.7559823571       16.8314960878       18.9929929551
  N         5.7103763429        6.0016597072        8.1729684965
  C        11.1533274302       15.7451620534       15.7437486700
  H        11.1482525903       14.9699155177       14.9680342600
  C        11.1130396990        4.9301606241        4.9292261275
  H        11.1091882727        4.1547193768        4.1536456059
  C         0.3404281956       15.7596841843        4.9247119338
  H         0.3455614709       14.9849155923        4.1484792485
  C         0.3080465771        4.9317068019       15.7454352453
  H         0.3151256667        4.1572113538       14.9690040084
  C        11.1273900647        7.0500847935       15.7496135400
  H        11.1302959437        7.8261889236       14.9747270780
  C        11.1605662901       17.8604316551        4.9329358032
  H        11.1642072140       18.6350448788        4.1564207388
  C         0.2906829105        7.0466264784        4.9317174196
  H         0.2854475498        7.8229783407        4.1569596104
  C         0.3312807681       17.8718400846       15.7505152215
  H         0.3265284590       18.6479762448       14.9756214823
  C        11.1520235724       15.7479819441        7.0507608283
  H        11.1482479491       14.9732942718        7.8270256554
  C        11.1191942874        4.9328274490       17.8626166598
  H        11.1154137695        4.1564771110       18.6373328645
  C         0.3419895483       15.7580120986       17.8665973964
  H         0.3474192978       14.9838424061       18.6434344313
  C         0.3013855271        4.9324581287        7.0481615394
  H         0.3067357199        4.1584203659        7.8250658740
  C        11.1215972076        7.0448536081        7.0449486141
  H        11.1258675579        7.8201327086        7.8207004017
  C        11.1648360845       17.8589219128       17.8600058481
  H        11.1702806319       18.6340858957       18.6359374781
  C         0.2938804867        7.0455421007       17.8621165185
  H         0.2866300996        7.8213503844       18.6374233372
  C         0.3300163332       17.8741138950        7.0403751489
  H         0.3253949086       18.6498752027        7.8156576502
  C        15.5049440913       11.3804884592       15.7394138142
  H        14.7308677748       11.3845583547       14.9624276844
  C        15.4821423616        0.5531005875        4.9299407709
  H        14.7068981180        0.5486079400        4.1541483159
  C         4.6680773975       11.4189267002        4.9275409089
  H         3.8925288990       11.4223944008        4.1520877085
  C         4.6694232844        0.5903366440       15.7542117275
  H         3.8927099248        0.5842020511       14.9798655267
  C        15.4735723116       11.3813651637        7.0251487362
  H        14.6923425930       11.3861048101        7.7947419113
  C        15.4835947860        0.5519020551       17.8591897565
  H        14.7084367238        0.5464765670       18.6350536615
  C         4.6711376165       11.4197580200       17.8652535650
  H         3.8966024375       11.4237554176       18.6417135377
  C         4.6648512176        0.5913480901        7.0409002968
  H         3.8887065564        0.5856139879        7.8157943679
  C         6.7837995955       11.4111126916       15.7482835965
  H         7.5588231123       11.4075456666       14.9722753042
  C         6.7796375507        0.6027438877        4.9260903261
  H         7.5542415627        0.6086253310        4.1497452427
  C        17.6069888328       11.3711278806        4.9288334271
  H        18.3884795484       11.3662723314        4.1594094344
  C        17.5956461776        0.5626746986       15.7413329229
  H        18.3695500738        0.5677607287       14.9642120637
  C         6.7828134992       11.4108996608        7.0425849314
  H         7.5582229784       11.4076113393        7.8182128584
  C         6.7848964095        0.6024900401       17.8680847005
  H         7.5596274388        0.6089802914       18.6442622436
  C        17.6151532603       11.3714019457       17.8592419388
  H        18.3888110792       11.3669399840       18.6365548418
  C        17.5937720314        0.5626209894        7.0483803846
  H        18.3673044031        0.5669196687        7.8258729439
  C        15.5181903717       15.7204997686       11.3948661404
  H        14.7438788562       14.9437956056       11.3951099182
  C        15.4623492776        4.9059863840        0.5761472536
  H        14.6864922133        4.1308559612        0.5754301747
  C         4.6967711240       15.7784836017        0.5778126367
  H         3.9191491734       15.0050275647        0.5777716859
  C         4.6512665912        4.9479816374       11.3985334685
  H         3.8742888144        4.1739257573       11.3992548373
  C         6.8014931007       15.7655798519       11.3971526190
  H         7.5754555586       14.9884576711       11.3971685445
  C         6.7621475699        4.9575046317        0.5785107733
  H         7.5380213562        4.1823190179        0.5795966890
  C        17.6302541217       15.7189185231        0.5767833134
  H        18.4040412016       14.9417464787        0.5768276445
  C        17.5873242130        4.9099497864       11.3934340757
  H        18.3674472489        4.1391037063       11.3916131940
  C        15.4570147021        7.0094252208       11.3967069591
  H        14.6769563952        7.7801901537       11.3984946157
  C        15.5180480424       17.8368233044        0.5761469304
  H        14.7436051134       18.6135303505        0.5760633211
  C         4.6435965340        7.0692746839        0.5768032184
  H         3.8671041596        7.8438111712        0.5757560133
  C         4.6900535221       17.8850894239       11.3973301022
  H         3.9161857782       18.6622545609       11.3973236442
  C         6.7699947367        7.0597267479       11.3968604242
  H         7.5467049392        7.8340789902       11.3959638008
  C         6.8170890610       17.8883259376        0.5782941464
  H         7.5943060405       18.6620926976        0.5782633385
  C        17.5779985328        7.0204896323        0.5775301291
  H        18.3537827218        7.7957818002        0.5782964083
  C        17.6290208949       17.8403668899       11.3943435331
  H        18.4032475984       18.6172070542       11.3939046469
 Xe        17.0514938653       10.2437372505       10.2668435850
