     409
 i =      56, E =    -5133.8672597233
  N         2.9610184182        5.2908911941       15.9596049385
  C         1.6356253154        5.5319647847       16.2248201267
  N        13.7783516770        5.0753726874        5.1045915490
  C        12.4590171559        5.3336906982        5.3846936317
  N        19.5634740866       17.5308134481       15.9764052198
  C        20.8815608247       17.2932708549       16.2714103745
  N         8.7741367044       17.6032377599        5.2463343378
  C        10.0896140920       17.2990290228        5.4920950003
  N        19.6399713644        5.1555234315        6.7254281913
  C        20.9566027964        5.4592616447        6.4847824776
  N         8.8074585380        5.2286230439       17.6334482143
  C        10.1243923360        5.4402141503       17.3103737481
  N         2.8917336462       17.5879000479        6.7850860019
  C         1.5787310049       17.2974369698        6.5103093123
  N        13.7207129560       17.5841895369       17.5945706712
  C        12.3959795949       17.3320455480       17.3406155189
  N        15.9521685404        2.9574649655        5.1245267120
  C        16.2078744214        1.6413164457        5.4119542490
  N        15.8132314535       13.8316097637       16.0121208653
  C        16.0904954778       12.5113091939       16.2688720820
  N        15.8981787682       19.7033737123       17.5552803000
  C        16.1723250925       21.0171779617       17.2723424527
  N        15.8836092478        8.8145237471        6.6675224783
  C        16.1534718810       10.1358286160        6.4128682919
  N         6.5970065783       19.7552670344        5.2317857693
  C         6.3242531277       21.0733091309        5.4941635847
  N         6.5998707421        8.9929786693       16.0712683174
  C         6.3102361081       10.3098492289       16.3311837987
  N         6.6412181452        3.1260086674       17.5536327375
  C         6.3597080670        1.8112391000       17.2890482292
  N         6.5895560083       13.8838528042        6.8310111107
  C         6.3262331476       12.5681440578        6.5405013427
  N         5.0769118964       16.0458749614        3.0884757545
  C         5.3399869124       16.3294548163        1.7730725668
  N         5.1921869955        5.3816187565       13.8608652472
  C         5.4782166888        5.6328297591       12.5430977681
  N        17.4388401273       15.9729542668       19.7026913868
  C        17.1764449221       16.2373082736       21.0236756736
  N        17.4768480382        5.1082226308        8.8487397349
  C        17.2130350695        5.3926873203       10.1644622028
  N         5.0313954545        6.7825405333       19.7292657276
  C         5.2915322644        6.4973071244       21.0451160808
  N         5.0451255121       17.6215354121        8.9467771643
  C         5.3176147451       17.3659041639       10.2671454270
  N        17.4952111684        6.6809437743        2.9828805253
  C        17.2225762541        6.4212620792        1.6636586487
  N        17.3877850370       17.5236350227       13.8431257665
  C        17.1155601435       17.2451725458       12.5285591293
  N         5.0849206462        3.0889559963        6.7872342144
  C         5.3312063696        1.7651740200        6.5151083749
  N         5.0183289506       13.9455861238       17.6313907136
  C         5.2822150359       12.6276160473       17.3531829432
  N        17.4397019590       19.6445999383        6.7487695118
  C        17.1880262449       20.9620883189        6.4619289767
  N        17.4263651456        8.8729116528       17.5046718876
  C        17.1369055584       10.1885924487       17.2485134209
  N         5.0452340122       19.8104114814       16.0484608656
  C         5.3301807944       21.1296493405       16.2985155126
  N         5.0979578136        8.9404036325        5.1595761518
  C         5.3456293974       10.2551344115        5.4653196247
  N        17.4809663902        3.0035059751       15.9663361820
  C        17.2008616641        1.6872074580       16.2372785317
  N        17.4547019804       13.7886486642        5.1773722993
  C        17.1804607134       12.4683237273        5.4317901310
  N         2.8835824154       16.1008391300       17.6270715201
  C         1.5658494491       16.3413851316       17.3336065693
  N        13.7194937652       15.9208435311        6.7130230614
  C        12.4037057340       16.2171912935        6.4583311392
  N        19.6044249388       15.9559133344        5.1978053928
  C        20.9174413360       16.2434119271        5.4759944221
  N         8.7301001896       16.0890758052       16.0958615333
  C        10.0523661174       16.3439918017       16.3551212666
  N        19.6104926061        6.7454087853       17.5080044022
  C        20.9323748784        6.4968889560       17.2401900645
  N         8.8347864282        6.6638244077        6.6766438927
  C        10.1468664552        6.3595618325        6.4168374238
  N         2.9466851427        6.8073260089        5.2411987102
  C         1.6320850912        6.5188374886        5.5042809428
  N        13.7566749806        6.6262943822       15.9121612338
  C        12.4420631915        6.3628301850       16.2022332153
  N        15.9280567718        5.1544439485       19.6649437002
  C        16.2045394329        5.4177008528       20.9811668382
  N        15.8465024393       15.9369679269        8.8902602506
  C        16.1042932561       16.2170422370       10.2097957758
  N        15.8976098513       17.5012229177        3.0322225718
  C        16.1695891915       17.2406499187        1.7135110270
  N        15.9413674968        6.7163129718       13.7957574235
  C        16.2102914396        6.4368604269       12.4793411327
  N         6.5776937414        5.1814112023        3.0288346257
  C         6.3009706413        5.4580273757        1.7157302633
  N         6.5951886273       16.1107686042       13.9185732465
  C         6.3318599560       16.3743798749       12.5985318483
  N         6.5983252815       17.6582603528       19.7799223301
  C         6.3397749332       17.3735331743       21.0971804965
  N         6.7960457106        6.8402439165        8.8866496268
  C         6.5220379248        6.5898562690       10.2080062707
  N        19.5772227920       17.4995679832        6.7646688308
  C        20.8987969348       17.2522590832        6.4982064754
  N         8.7581414364       17.6588327229       17.6355757900
  C        10.0723208615       17.3683558758       17.3618681927
  N         2.9601920193        5.2736946734        6.8179821946
  C         1.6389647709        5.5151956303        6.5319100071
  N        13.7668103408        5.1367569241       17.5309839416
  C        12.4467554516        5.3945455704       17.2610772252
  N         2.8778076052       17.6509225244       16.0655118544
  C         1.5614589261       17.3537064086       16.3147239227
  N        13.7312200022       17.5029407419        5.1839338537
  C        12.4113616380       17.2507913330        5.4613048571
  N        19.6375400627        5.1890707209       15.9522811552
  C        20.9516396304        5.4839632448       16.2217323221
  N         8.8093290392        5.1384844953        5.0942568067
  C        10.1330196352        5.3661028338        5.3801424697
  N         6.5917861549       19.8146998964       17.6158093913
  C         6.3368399204       21.1312307058       17.3236311089
  N         6.6534531200        8.9248075906        6.7141427392
  C         6.3585499953       10.2455377125        6.4836367481
  N         6.6054112785        3.0643801302        5.1967370379
  C         6.3277436457        1.7524567286        5.4806346025
  N         6.5558810603       13.9492442479       16.0583624693
  C         6.2856649353       12.6317256491       16.3267216778
  N        15.9267823457        3.0143697868       17.5235356670
  C        16.1883415832        1.6961050281       17.2558701911
  N        15.8862931405       13.7744836864        6.7214653811
  C        16.1563496445       12.4585332027        6.4391873119
  N        15.8960810474       19.6450794673        5.1821719254
  C        16.1792973519       20.9619015417        5.4395833795
  N        15.8450286213        8.8652383535       15.9745941330
  C        16.1036428376       10.1860733707       16.2505079471
  N        17.4651913185        6.7264617615       19.6646537125
  C        17.2087595588        6.4441644215       20.9826233717
  N        17.4095079868       17.4854585313        8.8937242562
  C        17.1265142170       17.2260255180       10.2096072422
  N         5.0356278503        6.7500537642        3.0430291548
  C         5.2929432985        6.4807918855        1.7236550893
  N         5.0303117004       17.6553824563       13.9057367071
  C         5.3094889707       17.3830404327       12.5897909753
  N        17.4531395233       15.9449698411        3.0242923979
  C        17.1827490599       16.2223611981        1.7070429077
  N        17.4840728190        5.1475245162       13.8051759360
  C        17.2171829301        5.4124044909       12.4858880275
  N         5.0409290505       16.1037094053       19.7773354482
  C         5.3230466146       16.3587879090       21.0944610443
  N         5.2064362678        5.3137372498        8.9069021059
  C         5.4856558360        5.5964475499       10.2205606335
  N        17.4349275975       19.6852662659       15.9811641609
  C        17.1780672080       21.0059136429       16.2470419371
  N        17.4578560516        8.8317738133        5.1310589217
  C        17.1800145552       10.1464442857        5.4082122681
  N         5.1176285354        3.1342179044       15.9675620365
  C         5.3616014072        1.8134676996       16.2562273499
  N         5.0565762887       13.8964381494        5.2526187093
  C         5.3235424541       12.5767267917        5.5128989479
  N        17.5006429065        2.9616761646        6.6880469980
  C        17.2182407442        1.6430894126        6.4329485441
  N        17.4008357467       13.8257767360       17.5364120782
  C        17.1261328603       12.5093529225       17.2644283328
  N         5.0443356313       19.7629522023        6.7913710465
  C         5.3151118727       21.0806252817        6.5164342684
  N         5.0520007022        8.9835402197       17.6343164662
  C         5.3011617118       10.3036465727       17.3535452092
  N        19.6348755500        6.7058934497        5.1629015318
  C        20.9523029341        6.4690703256        5.4631254333
  N         8.8067667722        6.7238983338       16.0227652508
  C        10.1229103153        6.4129897246       16.2543578241
  N         2.9239598727        6.8236456063       17.5367094674
  C         1.6131975317        6.5358835951       17.2519317754
  N        13.7805330590        6.5950818609        6.6952732230
  C        12.4648922561        6.3229857222        6.4241924438
  N         2.9189345583       16.0391563276        5.2240533431
  C         1.5973953481       16.2865454618        5.4903766415
  N        13.6832199410       16.0200065118       16.0470188308
  C        12.3726380527       16.3104634504       16.3315482215
  N        19.5705853759       15.9790836522       17.5358996280
  C        20.8863954088       16.2801985647       17.2896382054
  N         8.7613417790       16.0194346793        6.7730542167
  C        10.0816588214       16.2644882478        6.4887382741
  N         6.6311523314       17.6012951324        3.0960558451
  C         6.3556496912       17.3447004014        1.7775035846
  N         6.7633501209        6.9280552738       13.8555290324
  C         6.5076394005        6.6341547975       12.5383024059
  N         6.5868499549        5.2260097127       19.7241772904
  C         6.3046969051        5.4794252864       21.0402123591
  N         6.6122316302       16.0762616562        8.9602581804
  C         6.3406335234       16.3572389349       10.2761918118
  N        15.8997583476       17.5456739321       19.7176138933
  C        16.1697788328       17.2619510565       21.0325329347
  N        15.9344065773        6.6754522301        8.8377983903
  C        16.2060617064        6.4167519518       10.1575924073
  N        15.9539905408        5.1104141751        2.9747355955
  C        16.2170161081        5.3955801853        1.6595664142
  N        15.8125410460       15.9866122540       13.8545370410
  C        16.0886688503       16.2407395676       12.5336796446
 Zn        14.5096974738       14.7146846069       14.7406195287
 Br        13.1966919388       13.3977608411       13.4268028532
 Zn        14.6630239493        3.7996804185        3.8157924545
 Br        13.3488414611        2.4886980372        2.4977659826
 Zn         3.7863279400       14.7524630395        3.9399852844
 Br         2.4841560426       13.4316151785        2.6185172779
 Zn         3.8812308361        4.0506369133       14.6636454217
 Br         2.5881868890        2.7487551979       13.3143315815
 Zn         8.0086352388        8.1786862678       14.8703372938
 Br         9.6513892423        9.7070951856       14.4095996718
 Zn         7.9126105866       18.8969907218        3.9581026432
 Br         9.2405671497       20.1990341793        2.6453217885
 Zn        18.7716547681        7.9828244500        3.8508287427
 Br        20.0782485921        9.3125117576        2.5443775406
 Zn        18.7034422130       18.8130103494       14.6747050414
 Br        20.0200904450       20.1163799392       13.3525754237
 Zn         7.8922911174       14.7692010838        8.1002039221
 Br         9.3112969492       13.5704583651        9.4169682508
 Zn         7.9087262481        3.9475052268       18.8927652568
 Br         9.1979033659        2.6085733493       20.2061697244
 Zn        18.7128762445       14.6734208004       18.8208785818
 Br        20.0361205461       13.3570836890       20.1243228074
 Zn        18.7797094830        3.8316700071        7.9912891366
 Br        20.1041476308        2.5200054875        9.3005362925
 Zn        14.6149780436        7.9287180135        7.9619709378
 Br        13.3443650691        9.2407764487        9.3206008786
 Zn        14.6170357097       18.8636847818       18.8753024015
 Br        13.3327503270       20.1917713156       20.2050008326
 Zn         3.7416199075        8.0917477735       18.8820588480
 Br         2.4058193405        9.3722116848       20.2068022211
 Zn         3.7396207469       18.8946051689        8.0697529110
 Br         2.4238235052       20.2210879905        9.3725505077
 Zn        14.5802179170       14.6261791968        8.0083852444
 Br        13.2822090649       13.2981218761        9.3260987979
 Zn        14.6336746055        3.8578565733       18.8237999427
 Br        13.3132748001        2.5524299555       20.1406586491
 Zn         3.7379690625       14.8160721818       18.9296908110
 Br         2.4291313990       13.4968210228       20.2449263996
 Zn         3.8617271953        4.0084106253        8.1068208523
 Br         2.5633165389        2.7193456133        9.4600702379
 Zn         8.0577309283        8.0768437484        7.8919600304
 Br         9.6643117678        9.5767184883        8.5188160676
 Zn         7.8903122232       18.9557098677       18.9182331497
 Br         9.2122095477       20.2620976324       20.2321999768
 Zn        18.7313863793        8.0317301116       18.7931234962
 Br        20.0337072419        9.3592209989       20.1082624863
 Zn        18.7106357735       18.7803160668        8.0574184010
 Br        20.0199285568       20.0982412192        9.3738157314
 Zn        14.6041052870        7.9651590289       14.6553174118
 Br        13.3163530894        9.2692811134       13.3033870202
 Zn        14.6013317685       18.7863023409        3.8931128817
 Br        13.2892077476       20.1099423110        2.5841537922
 Zn         3.7794976733        8.0721291626        3.9025800102
 Br         2.4465896821        9.3790877553        2.6001224475
 Zn         3.7368149169       18.9438589486       14.7709023039
 Br         2.4278597528       20.2670184402       13.4580964929
 Zn         7.8647465825       14.8178099263       14.7951691306
 Br         9.2690772647       13.5913290520       13.4876441212
 Zn         7.8791298931        3.8678455045        3.8442147743
 Br         9.1309927575        2.5157368038        2.5099858926
 Zn        18.7543475433       14.6625439118        3.8951656541
 Br        20.0787501133       13.3639287488        2.5749065102
 Zn        18.7800161936        3.8678360856       14.6779531541
 Br        20.1110897487        2.5488955204       13.3834434443
 Zn         5.8853260203        6.0664321648       16.8200146691
 Zn        16.6309970050       16.7639675064       16.7752398919
 Zn        16.7121287859        5.8876124211        5.9018494888
 Zn         5.8391428634       16.8281356443        6.0213259244
 Zn         5.8930660090        6.0055246576        5.9473406980
 Zn        16.6594662005       16.7108708254        5.9587889890
 Zn         5.8050208099       16.8861313555       16.8577580960
 Zn        16.6905581395        5.9387817093       16.7264608713
  N         3.6896340122        6.0689530675       16.7541202592
  N        14.5264505660        5.8402026884        5.8957197095
  N        18.8203192457       16.7389806589       16.7435304289
  N         8.0215959764       16.8270820918        6.0204337129
  N        18.8915707034        5.9126469917        5.9283443391
  N         8.0619102793        6.0061359056       16.8536557063
  N         3.6524529101       16.8238482130        6.0062520962
  N        14.4485233532       16.7921654023       16.8128539265
  N        16.7325593199        3.7059993726        5.8978704406
  N        16.6064694300       14.5752800868       16.7778958785
  N        16.6623378921       18.9473551166       16.7725764806
  N        16.6741180208        8.0761978241        5.8943553695
  N         5.8218348980       19.0126250250        6.0156114815
  N         5.8383813390        8.2426135571       16.8595890770
  N         5.8891143998        3.8771222270       16.7562142815
  N         5.8225626281       14.6373641539        6.0472107321
  N         5.8568214530       16.8172027432        3.8393552014
  N         5.9663590517        6.1630938465       14.6061271049
  N        16.6670816066       16.7642370496       18.9633760606
  N        16.7033282745        5.8851079737        8.0960904865
  N         5.8166363403        6.0135191136       18.9806271176
  N         5.8277954436       16.8421881259        8.2071586450
  N        16.7266953426        5.8894057103        3.7252825931
  N        16.5997732201       16.7614349156       14.5952630094
  N         5.8542962307        3.8230973100        5.9882210680
  N         5.7895397471       14.6948271178       16.8487475358
  N        16.6597669830       18.8977865026        5.9728608982
  N        16.6457896826        8.1226841369       16.7338847589
  N         5.8102900267       19.0667441288       16.8424455170
  N         5.8895172264        8.1868731840        5.9166251408
  N        16.7080591468        3.7556288901       16.7447116732
  N        16.6709661814       14.5278739926        5.9565366509
  N         3.6270590583       16.8897483575       16.8577944973
  N        14.4720380742       16.7010031149        5.9429506700
  N        18.8440691335       16.7180938617        5.9786872508
  N         7.9972678866       16.8830908012       16.8683094929
  N        18.8777005440        5.9554663833       16.7299967829
  N         8.0758311258        5.9240718250        5.8778361001
  N         3.7004315876        6.0516092502        6.0334825858
  N        14.5085658218        5.8848371973       16.7192285371
  N        16.6909736527        5.9451916802       18.9173640268
  N        16.6354676243       16.7059289408        8.1452520718
  N        16.6745250999       16.7189638239        3.7748539300
  N        16.7111110379        5.9351775016       14.5467327009
  N         5.8130190435        5.9648251546        3.7824057262
  N         5.8085366729       16.8848100785       14.6595994994
  N         5.8131443565       16.8883537475       19.0324836142
  N         5.9959047658        6.0681010146        8.1493150704
  C        11.1997065905       15.7736384063       15.7987637899
  H        11.1783519157       14.9939329888       15.0279578465
  C        11.2896831486        4.8091548260        4.8237891706
  H        11.2809574296        4.0519977146        4.0307073355
  C         0.4505546424       15.7179006949        4.9305888963
  H         0.4716963500       14.9465567384        4.1512194845
  C         0.4854950173        4.9633142423       15.6696012618
  H         0.5026853158        4.1931958423       14.8891900609
  C        11.2822073411        6.8997350899       15.6465035599
  H        11.2834548121        7.6496670436       14.8486933161
  C        11.2549370509       17.8335831233        4.9366559297
  H        11.2613175199       18.6227918660        4.1752003670
  C         0.4699886205        7.0408780521        4.9315296683
  H         0.4674780426        7.8101808008        4.1497430722
  C         0.3977773230       17.8726551704       15.7426411800
  H         0.3916744422       18.6472874840       14.9662833012
  C        11.2388201029       15.6800193624        7.0107149200
  H        11.2316237409       14.8917647868        7.7729760587
  C        11.2871494835        4.8858665874       17.8532444203
  H        11.2901803657        4.1435050319       18.6601367070
  C         0.4099501781       15.7633337881       17.8637513737
  H         0.4162605183       14.9906874232       18.6421189469
  C         0.4796982086        4.9447361551        7.0647843667
  H         0.4811788498        4.1759449728        7.8468051342
  C        11.3137289588        6.8683049017        6.9884785172
  H        11.3240386702        7.6334111547        7.7724239203
  C        11.2475751177       17.9032133015       17.8971073053
  H        11.2681878723       18.6837427753       18.6671711315
  C         0.4408512260        7.0624091327       17.7988205727
  H         0.4230201246        7.8319982294       18.5802156839
  C         0.4057956230       17.8216160632        7.0572534032
  H         0.3847944072       18.5936043014        7.8360415714
  C        15.5365567538       11.3496053599       15.7218864089
  H        14.7482931071       11.3520997896       14.9594780302
  C        15.6465570727        0.4817357018        4.8728966876
  H        14.8743652129        0.4816196583        4.0939690827
  C         4.7865198586       11.4218524287        4.9380594052
  H         4.0175009032       11.4319886833        4.1560908872
  C         4.8033463251        0.6491915341       15.7211570213
  H         4.0360453207        0.6438815737       14.9377376330
  C        15.6000729842       11.2917535690        6.9701344975
  H        14.8194262447       11.2839109328        7.7404693215
  C        15.6326954304        0.5440930895       17.8164497631
  H        14.8608476398        0.5558318937       18.5956707001
  C         4.7451499248       11.4614586716       17.9058191992
  H         3.9777076137       11.4554212559       18.6892168292
  C         4.7788580134        0.6071482280        7.0705574302
  H         4.0119732576        0.6117473075        7.8543929532
  C         6.8373923840       11.4762934355       15.7720819824
  H         7.6183397859       11.4835233686       15.0038074300
  C         6.8666515078        0.5885440728        4.9290328648
  H         7.6311050795        0.5839672590        4.1424414579
  C        17.7340422581       11.3128744617        4.8750811795
  H        18.5161724277       11.3204320397        4.1063500799
  C        17.7349410805        0.5193168005       15.6879544237
  H        18.5050077439        0.5081813066       14.9072521327
  C         6.8829955772       11.4018248312        7.0680882049
  H         7.6641767457       11.3914721011        7.8361451166
  C         6.8906095160        0.6536833650       17.8628033430
  H         7.6557615234        0.6601212422       18.6487235187
  C        17.6900129239       11.3480361528       17.7964151190
  H        18.4795459664       11.3454840960       18.5577110605
  C        17.7494851575        0.4826022746        7.0006918527
  H        18.5198946413        0.4824285451        7.7811586728
  C        15.5413643998       15.6850107884       11.3734517150
  H        14.7597117230       14.9158291235       11.3760935741
  C        15.6663032964        4.8511537119        0.4980885505
  H        14.8973043163        4.0691667726        0.4941125641
  C         4.7811504233       15.7943024840        0.6109631935
  H         4.0043865020       15.0200705718        0.6066848021
  C         4.9269848375        5.0733955986       11.3882300489
  H         4.1412966977        4.3074937495       11.3985418890
  C         6.8914543462       15.8223598144       11.4432843990
  H         7.6772547169       15.0575392832       11.4529402614
  C         6.8482209686        4.9127785563        0.5538232462
  H         7.6193844975        4.1327933440        0.5479063191
  C        17.7260250179       15.6773990503        0.5404593043
  H        18.4971030060       14.8976053488        0.5332388998
  C        17.7606324408        4.8487320264       11.3288986225
  H        18.5298100726        4.0670336597       11.3344035275
  C        15.6644359238        6.9820079441       11.3147406892
  H        14.8958618402        7.7643412072       11.3088814365
  C        15.6236512146       17.8042828974        0.5579220185
  H        14.8527546899       18.5844306747        0.5652414995
  C         4.7419082526        7.0401684834        0.5685765953
  H         3.9703028694        7.8196282039        0.5745906734
  C         4.7622293371       17.9219490640       11.4226843853
  H         3.9832595695       18.6939504994       11.4138717576
  C         7.0783887937        7.1382857011       11.3666252272
  H         7.8676468018        7.8937295685       11.3542621884
  C         6.8987518324       17.9083608991        0.6202512323
  H         7.6750917577       18.6831282786        0.6255013011
  C        17.7596522406        6.9888431916        0.5052739095
  H        18.5258433709        7.7735276742        0.5085275134
  C        17.6752908068       17.7807721620       11.3672294253
  H        18.4580772294       18.5490837153       11.3643759422
 Xe         7.7040947215       10.7897389769       11.4469857811
