     409
 i =      56, E =    -5133.8553201831
  N         2.8254087844        5.2102219856       15.9733292446
  C         1.5080087309        5.4980170818       16.2297342233
  N        13.6030295269        5.1209643179        5.0739200822
  C        12.2837528753        5.3567729102        5.3754925668
  N        19.6490517508       17.6294014814       16.0345578970
  C        20.9661974799       17.3453829174       16.2979628927
  N         8.7712232369       17.5356623658        5.2173347735
  C        10.0901211121       17.2638298133        5.4814498374
  N        19.4608998114        5.2469727831        6.7907190444
  C        20.7833524103        5.5014819132        6.5207539520
  N         8.6851184747        5.1632113487       17.5673038504
  C        10.0052291983        5.4033904033       17.2828714065
  N         2.9118563307       17.5328767241        6.7845525653
  C         1.5930611319       17.2771604082        6.5075601034
  N        13.7858217605       17.6304940229       17.6029579216
  C        12.4694883261       17.3469440892       17.3370845225
  N        15.7984144379        3.0334952772        5.1846179189
  C        16.0893749300        1.7234328846        5.4671343324
  N        15.9848007796       13.9203855922       16.0291599748
  C        16.2500664109       12.6029088463       16.3017726466
  N        15.9401972455       19.7839815260       17.5830793202
  C        16.1753707871       21.1017504178       17.2855413102
  N        15.8381024944        8.9060524234        6.6696083094
  C        16.1411338222       10.2249958449        6.4410122775
  N         6.5956696501       19.6921705377        5.2174526759
  C         6.2886978097       21.0058304677        5.4663438235
  N         6.6103379475        8.8838009092       16.0052354273
  C         6.3660287349       10.2069410767       16.2806894916
  N         6.5329099644        3.0481882934       17.5730813680
  C         6.2897300586        1.7275835114       17.3008774705
  N         6.6017571883       13.8080443073        6.7404595508
  C         6.3204943701       12.4936449354        6.4619251657
  N         5.0573033471       16.0028537954        3.0435434720
  C         5.3347699342       16.2801732499        1.7281362364
  N         4.9693565976        5.1642047716       13.8382363481
  C         5.2254876620        5.4367561380       12.5183000060
  N        17.4924523957       16.0708245646       19.7503181246
  C        17.2019212426       16.3228973308       21.0666700468
  N        17.2001393612        5.3169615003        8.8817678454
  C        16.9317168309        5.6102185749       10.1956540637
  N         4.9724603589        6.7666008342       19.6925688690
  C         5.2220764308        6.4868107456       21.0126271684
  N         5.0900582697       17.5206740431        8.9223427459
  C         5.3812136971       17.2610915372       10.2368838067
  N        17.3860114984        6.7018999790        3.0171876028
  C        17.1298935844        6.4306304239        1.6999227402
  N        17.4936440361       17.6280042540       13.8742260586
  C        17.2098895454       17.3543298312       12.5595557024
  N         4.9156324312        2.9910536246        6.7106700762
  C         5.2105125488        1.6750400755        6.4545194955
  N         5.1171428230       13.8600749977       17.5678535538
  C         5.3749207222       12.5408597034       17.2947291496
  N        17.4271545809       19.7467215307        6.7656883804
  C        17.1364472081       21.0613495191        6.4959439729
  N        17.4288117618        8.9537050911       17.6493231333
  C        17.2018357076       10.2736360066       17.3520591064
  N         5.0990028500       19.7068849288       16.0107923340
  C         5.3373907161       21.0288451286       16.2839428603
  N         4.9813403767        8.8728237543        5.1722114405
  C         5.2729369249       10.1865092379        5.4422289236
  N        17.3392287146        3.1185355075       15.9258136565
  C        17.1119726398        1.7941695469       16.2128570863
  N        17.4603488865       13.8699830765        5.2104027105
  C        17.1866152714       12.5507231455        5.4665729621
  N         2.9580943452       16.0140220966       17.5664447073
  C         1.6421607698       16.3000318155       17.3038761846
  N        13.7383566594       15.9831923510        6.7556838483
  C        12.4175842883       16.2427575138        6.4846232350
  N        19.5901829360       16.0284033627        5.2023487517
  C        20.9080576552       16.2888597564        5.4780772234
  N         8.8417834216       16.0223752447       16.0536054160
  C        10.1564918700       16.3044215690       16.3271420135
  N        19.5207747921        6.7936700652       17.5276950372
  C        20.8336314346        6.5211093278       17.2437507626
  N         8.6549283116        6.6133946353        6.7263738458
  C         9.9673124797        6.3310257100        6.4459111659
  N         2.7900167588        6.7441419406        5.2000814711
  C         1.4717394793        6.4885908606        5.4817791401
  N        13.6514222158        6.6817282960       16.0113769403
  C        12.3327450233        6.3877951903       16.2521499317
  N        15.8598805733        5.1748890839       19.6982866249
  C        16.1307317464        5.4299160187       21.0158323643
  N        15.8919418281       16.0489558395        8.9332047031
  C        16.1684019102       16.3275709977       10.2491618526
  N        15.8696330382       17.5629748769        3.0638565346
  C        16.1519948740       17.3067833847        1.7460488797
  N        15.6854019004        6.9512101875       13.8397822704
  C        15.9376506726        6.6649758323       12.5195364120
  N         6.4590447937        5.1546602993        3.0083787299
  C         6.2002937565        5.4402370365        1.6935970473
  N         6.7068005591       16.0032613308       13.8736649486
  C         6.4283797218       16.2648126526       12.5545576589
  N         6.6498930787       17.5798294208       19.7397623471
  C         6.3689027808       17.3070116342       21.0557299150
  N         6.4931052158        6.7058533245        8.8682641676
  C         6.2230897539        6.4472109731       10.1880677393
  N        19.5947985048       17.5813790010        6.7620223821
  C        20.9118032578       17.3005485644        6.4977727115
  N         8.8244827995       17.5937218494       17.5945897700
  C        10.1461770237       17.3305104154       17.3325049267
  N         2.7839807287        5.1927321589        6.7613672978
  C         1.4667177880        5.4796085128        6.5043537557
  N        13.6448695041        5.1892924913       17.6236172206
  C        12.3282214967        5.4163622679       17.3091237752
  N         2.9665887067       17.5616199904       16.0043327139
  C         1.6476731381       17.3115623364       16.2843935530
  N        13.7273596073       17.5652231082        5.2276023868
  C        12.4116619920       17.2772236773        5.4879491013
  N        19.4998286426        5.2761920151       15.9353722269
  C        20.8234418137        5.5244645092       16.2093599398
  N         8.6360460073        5.1033647055        5.1271161972
  C         9.9582790633        5.3480449529        5.4007711398
  N         6.6445815967       19.7354206190       17.5758319160
  C         6.3477291253       21.0480468688       17.3047614636
  N         6.5600987935        8.8476935228        6.7045933513
  C         6.3015561418       10.1705234079        6.4449905436
  N         6.4618356009        3.0013282451        5.1461128779
  C         6.2204626042        1.6835164420        5.4334611358
  N         6.6972379741       13.8484361408       16.0362113486
  C         6.4069229537       12.5314662257       16.2957009190
  N        15.8180226311        3.0906863214       17.5146427860
  C        16.1160119109        1.7798074538       17.2479333535
  N        15.9358092804       13.8613716185        6.7957271880
  C        16.1925080532       12.5456931737        6.5015063332
  N        15.8798919380       19.7226489211        5.2015650068
  C        16.1295404141       21.0436207231        5.4717857016
  N        15.9061428093        8.9666172492       16.0656342827
  C        16.2065708611       10.2824479609       16.3172238024
  N        17.4173563847        6.7288013646       19.7130763303
  C        17.1464375558        6.4448939618       21.0256844464
  N        17.4530400209       17.5993639004        8.9176660135
  C        17.1886046363       17.3388839889       10.2378368158
  N         4.9217422061        6.7270710329        3.0141387058
  C         5.1962969828        6.4671720828        1.6945852666
  N         5.1414587589       17.5497367528       13.8719539555
  C         5.4072534061       17.2750410021       12.5557034989
  N        17.4321196069       16.0154056225        3.0623483901
  C        17.1713143803       16.2952141932        1.7458331033
  N        17.2374462403        5.3837855199       13.8348404657
  C        16.9500249881        5.6450835390       12.5186912712
  N         5.0988017634       16.0183951138       19.7257663161
  C         5.3553668271       16.2889796395       21.0459329957
  N         4.9498722052        5.1373887315        8.8803029222
  C         5.2163744262        5.4225361356       10.1960561252
  N        17.4787733213       19.7934640110       16.0099717834
  C        17.1778838371       21.1103639047       16.2568844574
  N        17.3682997471        8.9138708880        5.0938436380
  C        17.1400609477       10.2293341752        5.4097738793
  N         4.9801301689        3.0226788503       16.0141080237
  C         5.2768567650        1.7092565346       16.2827956759
  N         5.0385314701       13.8310091796        5.1915577591
  C         5.2981001373       12.5090223723        5.4530006965
  N        17.3202207379        3.0712953375        6.7733990779
  C        17.0864297040        1.7453961212        6.5011828002
  N        17.5130091560       13.9143241531       17.6094805357
  C        17.2449478603       12.5966611161       17.3355666705
  N         5.0462111742       19.6759120194        6.7779410635
  C         5.2772792647       20.9953526093        6.4860314788
  N         5.0259070909        8.9066994585       17.5321196237
  C         5.3321022310       10.2199931326       17.2782241853
  N        19.4787147598        6.7672093252        5.2019060157
  C        20.7919649925        6.4985992790        5.4870641629
  N         8.6970541009        6.6442311172       15.9409121522
  C        10.0116773133        6.3678057179       16.2204244043
  N         2.8323233762        6.7695941945       17.5261799834
  C         1.5138494658        6.5107426165       17.2483804139
  N        13.6040547727        6.6355270807        6.6651212468
  C        12.2866452373        6.3441729358        6.4178901087
  N         2.9048817600       15.9971056986        5.2094320466
  C         1.5886288250       16.2719933560        5.4815870402
  N        13.7974263712       16.0547727436       16.0683554329
  C        12.4778097398       16.3189427078       16.3339151207
  N        19.6436053895       16.0757768587       17.5946649872
  C        20.9616732787       16.3319806201       17.3162338449
  N         8.7768210047       15.9459682805        6.7386839588
  C        10.0942572012       16.2265670450        6.4751641143
  N         6.6158367383       17.5554493504        3.0597106775
  C         6.3514042337       17.2949210508        1.7387159248
  N         6.5062826985        6.7379054834       13.8260133783
  C         6.2298839726        6.4636434395       12.5099476409
  N         6.5133461401        5.1977897156       19.7032646802
  C         6.2274279204        5.4613838437       21.0170334001
  N         6.6487927730       15.9672008349        8.9109393981
  C         6.3996762492       16.2481475498       10.2312862063
  N        15.9359396163       17.6258895022       19.7477872508
  C        16.1849195768       17.3372970676       21.0656342110
  N        15.6382655978        6.8733650711        8.8637441356
  C        15.9156422958        6.6258861227       10.1856572271
  N        15.8337181701        5.1422092880        3.0037751809
  C        16.1162105165        5.4133480782        1.6905011336
  N        15.9290080752       16.0822391946       13.8930690014
  C        16.1882648344       16.3447326484       12.5718318651
 Zn        14.6653041205       14.7788760050       14.7709800422
 Br        13.3381156348       13.4980643343       13.4420136957
 Zn        14.5250356989        3.8381912201        3.8315737551
 Br        13.2621182019        2.4899852109        2.5033530101
 Zn         3.7569070924       14.7144799752        3.8994000340
 Br         2.4297270357       13.4223472252        2.5752790152
 Zn         3.6825455832        3.8798829453       14.7167315468
 Br         2.3533631949        2.5584899127       13.4223062727
 Zn         7.8441972731        7.9815537231       14.6869000949
 Br         9.1382854338        9.2812902859       13.3426698805
 Zn         7.9050235309       18.8370945937        3.9390215436
 Br         9.2188801226       20.1618521691        2.6327649610
 Zn        18.6658370459        8.0221983266        3.8449913167
 Br        20.0075249218        9.3111891023        2.5359778375
 Zn        18.7843171799       18.9243910071       14.7340819325
 Br        20.1014342363       20.2399689708       13.4222719363
 Zn         7.9090479749       14.6541859132        8.0290217606
 Br         9.2175672984       13.3208873893        9.3357841017
 Zn         7.8168764652        3.9020994456       18.8755207080
 Br         9.1372998850        2.5976771040       20.1932723153
 Zn        18.7934970429       14.7811445630       18.8962042465
 Br        20.1053179515       13.4628541120       20.2104958956
 Zn        18.5437322404        4.0007727644        8.0812896188
 Br        19.8348094284        2.7087592365        9.4402055679
 Zn        14.3971643336        8.0866788088        7.8093243802
 Br        12.7976417999        9.6850812890        8.1159578596
 Zn        14.6547650654       18.9279514494       18.8852803020
 Br        13.3312991001       20.2291096002       20.2037281965
 Zn         3.7034954163        8.0657758052       18.8128860419
 Br         2.4076926856        9.4056902325       20.1195633507
 Zn         3.7801630123       18.8109827438        8.0844206676
 Br         2.4700763096       20.1237313978        9.4051910794
 Zn        14.6265821242       14.7295519353        8.0644960330
 Br        13.2984928901       13.4667433201        9.4082052039
 Zn        14.5451834172        3.8924066909       18.8672055224
 Br        13.2579826630        2.5484118159       20.1752965040
 Zn         3.8201349789       14.7191487255       18.8558600432
 Br         2.4948484384       13.4103697102       20.1652835120
 Zn         3.6388162861        3.8577304285        8.0164204466
 Br         2.3156087179        2.5544254398        9.3340526958
 Zn         7.8242939062        7.9491352041        7.9974865521
 Br         9.1298021281        9.2430583476        9.3382619240
 Zn         7.9401809117       18.8822219976       18.8785760765
 Br         9.2349613894       20.2086648985       20.2006964718
 Zn        18.7156300237        8.0463230703       18.8931772923
 Br        20.0624281949        9.3084088596       20.2227432574
 Zn        18.7358422301       18.8883580809        8.0461693963
 Br        20.0567359442       20.2187271168        9.3401239437
 Zn        14.4531965101        8.1697260193       14.9157575072
 Br        12.8325187689        9.7758126857       14.7605558800
 Zn        14.5765883460       18.8512574934        3.9272047949
 Br        13.2489787585       20.1493427038        2.6098829134
 Zn         3.6579980569        8.0287706723        3.8974349709
 Br         2.3560678099        9.3688420135        2.5956911872
 Zn         3.8332075605       18.8360248998       14.7082781914
 Br         2.5190561653       20.1459296246       13.3866442736
 Zn         8.0010612103       14.7172848127       14.7572303511
 Br         9.3189074631       13.4019345670       13.4431647071
 Zn         7.7445869121        3.8417736482        3.8367756333
 Br         9.0496517056        2.5245519250        2.5150448995
 Zn        18.7337177236       14.7290548903        3.9082122101
 Br        20.0425692765       13.4077539539        2.5952068052
 Zn        18.5675685487        4.0533761773       14.6265311037
 Br        19.8579112618        2.7584661218       13.2681208881
 Zn         5.7601824298        5.9596308881       16.7675853094
 Zn        16.7249421767       16.8589295294       16.8227214450
 Zn        16.5333443752        5.9840087630        5.9036940459
 Zn         5.8416277720       16.7531010201        5.9916862388
 Zn         5.7156840378        5.9249643474        5.9441831296
 Zn        16.6661896481       16.7994252224        5.9971692820
 Zn         5.9020278557       16.7839905689       16.8042585333
 Zn        16.5691068826        6.0425420735       16.8104581557
  N         3.5752282590        5.9815816376       16.7552150695
  N        14.3494314340        5.8975841770        5.8538104758
  N        18.9004342523       16.8587910000       16.8188084946
  N         8.0273790998       16.7385548933        5.9783884676
  N        18.7226119177        6.0101492570        5.9899442656
  N         7.9442690729        5.9146335371       16.7581128801
  N         3.6552715706       16.7604333881        5.9981259413
  N        14.5384406116       16.8482682530       16.8350590914
  N        16.5445130809        3.7987120102        5.9751264181
  N        16.7485057926       14.6649570589       16.8213580297
  N        16.7265515352       19.0425553108       16.8096055236
  N        16.5802878482        8.1643375507        5.8582582318
  N         5.8404277032       18.9373948660        6.0094139383
  N         5.8004766686        8.1490992818       16.7619746667
  N         5.7440013021        3.7818815902       16.7951046512
  N         5.8262786448       14.5661292110        5.9704924666
  N         5.8336454127       16.7746927323        3.7985530306
  N         5.7441455765        5.9508174496       14.5787431884
  N        16.7251770459       16.8579692125       19.0026183064
  N        16.4202669016        6.0810754529        8.1249683034
  N         5.7528068449        5.9861822928       18.9508001093
  N         5.8577987136       16.7380903650        8.1703284994
  N        16.6021398236        5.9236551878        3.7560970134
  N        16.7173852647       16.8572153263       14.6305449771
  N         5.6767796481        3.7428805744        5.9202809735
  N         5.9153489078       14.6008694724       16.8055428588
  N        16.6637083805       18.9880288049        5.9839572579
  N        16.6447555746        8.2147537562       16.8709106159
  N         5.8861613974       18.9743222498       16.7918899459
  N         5.7606408156        8.1136707810        5.9365879394
  N        16.5608917875        3.8512579329       16.7170359920
  N        16.7014817012       14.6126434235        6.0105885671
  N         3.7097007997       16.7789812475       16.7806224361
  N        14.4794491453       16.7825559728        5.9948232579
  N        18.8460997164       16.8095955364        5.9792628409
  N         8.0866895875       16.8027621468       16.8209566681
  N        18.7633044829        6.0413423828       16.7361621096
  N         7.8985178915        5.8692325737        5.9262393342
  N         3.5330747844        5.9591802963        5.9739701185
  N        14.3934786030        5.9585314023       16.8392121694
  N        16.6366649983        5.9604099442       18.9596587419
  N        16.6701529252       16.8193481947        8.1791488295
  N        16.6461480757       16.7834584589        3.8103250713
  N        16.4736633351        6.1699297419       14.5851296268
  N         5.6872921216        5.9342290745        3.7583488179
  N         5.9262436976       16.7802029218       14.6194667042
  N         5.8807522357       16.7989448424       18.9863701630
  N         5.7232965354        5.9147461135        8.1278367558
  C        11.3220539735       15.7558368104       15.7875741830
  H        11.3294898403       14.9727709269       15.0197752839
  C        11.1171178510        4.8140761603        4.8273110400
  H        11.1100295965        4.0606045770        4.0308397306
  C         0.4253197590       15.7341897575        4.9266318755
  H         0.4209727420       14.9636968133        4.1461002082
  C         0.3440555524        4.9688582019       15.6633665173
  H         0.3444765649        4.2006439852       14.8809060205
  C        11.1741272008        6.8889074500       15.6538382817
  H        11.1723500227        7.6408025897       14.8584560098
  C        11.2490510280       17.8300759516        4.9455141768
  H        11.2471737931       18.6202612305        4.1849436047
  C         0.3134471133        7.0388347322        4.9303175534
  H         0.3136809630        7.8057582118        4.1460655389
  C         0.4913235158       17.8773953277       15.7407196764
  H         0.4983926221       18.6518192679       14.9641990167
  C        11.2576404202       15.6728906153        7.0167444999
  H        11.2596947660       14.8826652566        7.7771286141
  C        11.1633426805        4.8794881389       17.8642560303
  H        11.1574914902        4.1387738601       18.6725059226
  C         0.4775975919       15.7686944604       17.8621670467
  H         0.4711803143       14.9961890515       18.6406900106
  C         0.3035478182        4.9498144992        7.0708780068
  H         0.3032591758        4.1833834164        7.8551629918
  C        11.1292475558        6.8601257238        7.0037266104
  H        11.1300945068        7.6245019062        7.7875728526
  C        11.3028095183       17.8937032665       17.8787582538
  H        11.2962325252       18.6765709714       18.6467946461
  C         0.3556297084        7.0608795180       17.8000936443
  H         0.3561255930        7.8281359572       18.5840602398
  C         0.4353975778       17.8347335363        7.0563099957
  H         0.4398490739       18.6059791132        7.8360512011
  C        15.6983292656       11.4502439652       15.7443129381
  H        14.9243449211       11.4651825606       14.9701957555
  C        15.5674479886        0.5528535260        4.9126093851
  H        14.8017519178        0.5374967752        4.1272522711
  C         4.7315234670       11.3563351495        4.9030853092
  H         3.9489090907       11.3682700638        4.1348111171
  C         4.7590833780        0.5352364993       15.7319583404
  H         3.9858669058        0.5133172374       14.9544970460
  C        15.6351347404       11.3840607076        7.0351802341
  H        14.8605930187       11.3838830880        7.8091872761
  C        15.6036922101        0.6155769969       17.8238017568
  H        14.8393630247        0.6089546713       18.6106312369
  C         4.7962849343       11.3868372835       17.8274538781
  H         4.0082864728       11.3962855483       18.5901762186
  C         4.6951227178        0.5074494781        7.0215278110
  H         3.9230535903        0.4943703027        7.8003089414
  C         6.9465002443       11.3629668159       15.7496735045
  H         7.7341304068       11.3549261145       14.9865460157
  C         6.8004588829        0.5325176376        4.8956972237
  H         7.5717741651        0.5457904126        4.1160202662
  C        17.7066275746       11.3926612128        4.8823467517
  H        18.4686338403       11.3971555140        4.0939872444
  C        17.6847356336        0.6371407112       15.6759739888
  H        18.4483798150        0.6429578510       14.8890959402
  C         6.8661038909       11.3236769681        6.9969369618
  H         7.6480984818       11.3124348557        7.7657469278
  C         6.8662773213        0.5818471402       17.8547228609
  H         7.6386714933        0.6047194212       18.6330448441
  C        17.7666059938       11.4292374836       17.9000991276
  H        18.5278103246       11.4202006143       18.6892243876
  C        17.6536191041        0.5938037792        7.0549461014
  H        18.4189728400        0.6082190618        7.8400775109
  C        15.6248971106       15.7908453837       11.4189464588
  H        14.8437103945       15.0212157324       11.4326951649
  C        15.5742743808        4.8682577139        0.5260630105
  H        14.7987402562        4.0926233930        0.5147630558
  C         4.7946691349       15.7361746170        0.5602855577
  H         4.0185640865       14.9612914550        0.5497053170
  C         4.6750753115        4.8766739277       11.3626177488
  H         3.9062248188        4.0947992917       11.3708671002
  C         6.9673138476       15.7106404146       11.3901222497
  H         7.7455452134       14.9380344674       11.3856373019
  C         6.7575099077        4.8941972429        0.5365449678
  H         7.5249772764        4.1106489925        0.5386239671
  C        17.7365377767       15.7589023969        0.5869361482
  H        18.5131829229       14.9844783344        0.5884907908
  C        17.4871204628        5.0786328364       11.3608944785
  H        18.2617155664        4.3008435236       11.3670033134
  C        15.3816615996        7.1919696988       11.3486887832
  H        14.6096550685        7.9672580613       11.3413111700
  C        15.6157431055       17.8691982767        0.5852810209
  H        14.8376581199       18.6420756336        0.5844778642
  C         4.6648603047        7.0329582313        0.5323325605
  H         3.8988958774        7.8178202428        0.5298315207
  C         4.8434246305       17.8169491483       11.3990048066
  H         4.0644771085       18.5892329139       11.4033898128
  C         6.7685779637        7.0123644576       11.3436765063
  H         7.5368994164        7.7950331478       11.3351579974
  C         6.9079286119       17.8518927373        0.5840325626
  H         7.6821202382       18.6286281114        0.5945585858
  C        17.6905957304        6.9878411433        0.5498638035
  H        18.4647493065        7.7648261449        0.5607921425
  C        17.7509514650       17.8938590519       11.3903105363
  H        18.5302483023       18.6653910413       11.3769435688
 Xe        12.0449736318       10.6311030360       11.4241999050
