     409
 i =      56, E =    -5133.8655753459
  N         2.8367215566        5.2027119112       15.9800443577
  C         1.5199341857        5.4909440082       16.2364931383
  N        13.6168101605        5.1270235112        5.0866031668
  C        12.2974786847        5.3710086239        5.3803449689
  N        19.6561540807       17.6216035733       16.0367927608
  C        20.9732631697       17.3383926397       16.3003904473
  N         8.7777970123       17.5345850699        5.2133204162
  C        10.0965363967       17.2626203415        5.4781288525
  N        19.4722583417        5.2300903593        6.7832588757
  C        20.7936380461        5.4900440648        6.5156521832
  N         8.7010603016        5.1566036957       17.5666876006
  C        10.0198845309        5.4086706342       17.2858397080
  N         2.9175255899       17.5295519576        6.7830068539
  C         1.5990534440       17.2729819379        6.5061553426
  N        13.7905942967       17.6244368901       17.6055780037
  C        12.4743018308       17.3422339649       17.3389142828
  N        15.8037066091        3.0232203289        5.1814710626
  C        16.0941022707        1.7125840062        5.4621909392
  N        15.9795415780       13.9120601966       16.0344915393
  C        16.2383158311       12.5933010446       16.3082838553
  N        15.9438475158       19.7735076147       17.5849399239
  C        16.1796706522       21.0911873967       17.2882013367
  N        15.8237063193        8.8994186037        6.6663992316
  C        16.1271511836       10.2182097099        6.4357451171
  N         6.6013963794       19.6877147193        5.2168241761
  C         6.2959134082       21.0015261959        5.4655209925
  N         6.6084990099        8.8778664506       16.0099692976
  C         6.3654582536       10.2015054759       16.2846390051
  N         6.5425911043        3.0429948534       17.5752830931
  C         6.2987035105        1.7223743591       17.3031995247
  N         6.6028063773       13.8045462019        6.7361887744
  C         6.3212655127       12.4898119775        6.4587253931
  N         5.0633399686       16.0009079931        3.0434172813
  C         5.3416344552       16.2777549274        1.7284022085
  N         4.9714107729        5.1511850486       13.8395573820
  C         5.2285280888        5.4251605176       12.5200016383
  N        17.4986189472       16.0606552763       19.7481800175
  C        17.2098388390       16.3136169830       21.0647880489
  N        17.2406505322        5.2747806970        8.8833196672
  C        16.9739608106        5.5680358551       10.1968623069
  N         4.9822521312        6.7582237982       19.6952160325
  C         5.2328861776        6.4781093426       21.0148624852
  N         5.0929103561       17.5195892238        8.9225237559
  C         5.3846816459       17.2593040765       10.2368357610
  N        17.3912382014        6.6967044047        3.0176897656
  C        17.1343677898        6.4260721230        1.7001456797
  N        17.5035619271       17.6237281142       13.8762462565
  C        17.2202249494       17.3513443399       12.5611634146
  N         4.9268552652        2.9870796441        6.7085165059
  C         5.2206405955        1.6712145999        6.4521585311
  N         5.1205268747       13.8551965376       17.5746685337
  C         5.3773690532       12.5360549193       17.3004511878
  N        17.4362343564       19.7373098850        6.7605678608
  C        17.1441575038       21.0511964559        6.4905966678
  N        17.4281461990        8.9415376577       17.6404671565
  C        17.1945955503       10.2619946934       17.3507225749
  N         5.1050942927       19.7025371917       16.0125152823
  C         5.3443257715       21.0242221996       16.2857525011
  N         4.9826903719        8.8688299065        5.1665379015
  C         5.2734893891       10.1826280116        5.4373955291
  N        17.3560801385        3.1036197985       15.9358865377
  C        17.1225221529        1.7810244640       16.2209017715
  N        17.4661345178       13.8594145153        5.2116381027
  C        17.1841794340       12.5413046690        5.4661577186
  N         2.9652448104       16.0101462133       17.5702806601
  C         1.6493078768       16.2948261583       17.3068862676
  N        13.7454854963       15.9854134650        6.7543468765
  C        12.4243723695       16.2437267866        6.4829064843
  N        19.5969994772       16.0212257299        5.2025022287
  C        20.9148942204       16.2825745950        5.4772661469
  N         8.8450074811       16.0202479233       16.0572371400
  C        10.1604199792       16.3012557583       16.3290685643
  N        19.5317309479        6.7856615939       17.5312363138
  C        20.8454006417        6.5151259614       17.2492024272
  N         8.6636970271        6.6263140591        6.7212828780
  C         9.9783800551        6.3526101289        6.4403450298
  N         2.7990310029        6.7364154932        5.1990299401
  C         1.4808246196        6.4814000533        5.4810574814
  N        13.6632300074        6.7079766610       16.0209861564
  C        12.3442291347        6.4141637929       16.2639803606
  N        15.8658318022        5.1682154650       19.6972364856
  C        16.1351036751        5.4245880404       21.0152446688
  N        15.9054958412       16.0501693337        8.9327027728
  C        16.1804935292       16.3272560992       10.2492393218
  N        15.8796869581       17.5536137667        3.0613940237
  C        16.1621411445       17.2978023547        1.7439838751
  N        15.7348199860        6.9034910072       13.8415857235
  C        15.9838205758        6.6206632712       12.5202343132
  N         6.4750001465        5.1499575505        3.0104479899
  C         6.2145770285        5.4338714483        1.6954730653
  N         6.7078576207       16.0010418522       13.8747294564
  C         6.4309322271       16.2622025090       12.5549663459
  N         6.6570157838       17.5778812871       19.7410555242
  C         6.3766063271       17.3047668509       21.0569222198
  N         6.4965693540        6.6970239812        8.8702273542
  C         6.2270296820        6.4378893361       10.1903672266
  N        19.6017422526       17.5751171201        6.7606612747
  C        20.9184766155       17.2947297499        6.4963282131
  N         8.8301433574       17.5910221045       17.5982657961
  C        10.1512926150       17.3269056789       17.3349771520
  N         2.7934317161        5.1837990940        6.7588963476
  C         1.4763146882        5.4709292575        6.5021640322
  N        13.6596569956        5.1934192881       17.6129379417
  C        12.3424384533        5.4287483461       17.3086967835
  N         2.9730229367       17.5574478814       16.0075455625
  C         1.6543851573       17.3062902890       16.2873111500
  N        13.7340232462       17.5629822268        5.2214883406
  C        12.4183906325       17.2760158465        5.4837586898
  N        19.5157337154        5.2597063783       15.9470810360
  C        20.8373909891        5.5142710484       16.2190813799
  N         8.6515021457        5.1027966393        5.1348592024
  C         9.9724446911        5.3585651564        5.4047003343
  N         6.6513991420       19.7305265408       17.5767503633
  C         6.3552089566       21.0431012434       17.3059474033
  N         6.5558891663        8.8437291348        6.7031529775
  C         6.2994883981       10.1666913800        6.4427235361
  N         6.4758266843        2.9968584976        5.1461532052
  C         6.2318760520        1.6791230218        5.4322717733
  N         6.6978312126       13.8437819914       16.0406331790
  C         6.4077143798       12.5264281708       16.2996082526
  N        15.8253293178        3.0805756348       17.5154073971
  C        16.1215987505        1.7688525541       17.2509610516
  N        15.9338264719       13.8566012352        6.7893075817
  C        16.1831357171       12.5393049399        6.4953008991
  N        15.8879886758       19.7123180346        5.1972568497
  C        16.1360715322       21.0333255283        5.4675043235
  N        15.8903373868        8.9559688242       16.0706766478
  C        16.1901337999       10.2721178412       16.3241740905
  N        17.4231755404        6.7217594405       19.7122477032
  C        17.1510106946        6.4394122142       21.0251933525
  N        17.4662003339       17.6001696224        8.9190585329
  C        17.2006108194       17.3386388979       10.2390356519
  N         4.9325052053        6.7175738035        3.0157630685
  C         5.2077400155        6.4580452203        1.6964554953
  N         5.1436065703       17.5479445011       13.8719370948
  C         5.4102577866       17.2728964567       12.5558699595
  N        17.4408312127       16.0053818566        3.0607626221
  C        17.1807764918       16.2857049760        1.7439896116
  N        17.2850206661        5.3377585940       13.8336220781
  C        16.9958661393        5.6005369274       12.5183913359
  N         5.1063124882       16.0164967325       19.7273965810
  C         5.3630829811       16.2868385772       21.0471633899
  N         4.9546670861        5.1282018459        8.8815859669
  C         5.2206652415        5.4129309530       10.1975126913
  N        17.4856005436       19.7823658364       16.0155466530
  C        17.1848682575       21.0989393446       16.2621951221
  N        17.3678060588        8.9037089617        5.1035418380
  C        17.1344917812       10.2200081319        5.4121815825
  N         4.9877216472        3.0173002097       16.0180939807
  C         5.2847921037        1.7041495294       16.2861353165
  N         5.0413417099       13.8270303346        5.1864216909
  C         5.3000645327       12.5051520543        5.4485975790
  N        17.3316270956        3.0577057434        6.7639387671
  C        17.0942687674        1.7333618760        6.4930029245
  N        17.5173599350       13.9019756332       17.6061533148
  C        17.2408393068       12.5851141074       17.3354936027
  N         5.0512565600       19.6728178546        6.7765483021
  C         5.2839475595       20.9919385512        6.4846250978
  N         5.0285887241        8.9022652929       17.5403170210
  C         5.3338327416       10.2152365237       17.2844748026
  N        19.4873095309        6.7590148387        5.2018953855
  C        20.8010919408        6.4913577431        5.4859567778
  N         8.7058350118        6.6504775356       15.9534300989
  C        10.0225570094        6.3840901098       16.2329237941
  N         2.8434968028        6.7643288788       17.5309071010
  C         1.5251222129        6.5055568374       17.2533542021
  N        13.6167365966        6.6622121273        6.6599110983
  C        12.2989360222        6.3713353618        6.4111686294
  N         2.9112246529       15.9938045876        5.2079061561
  C         1.5950187256       16.2677315034        5.4802654038
  N        13.8014675886       16.0520844236       16.0681035461
  C        12.4818703090       16.3158423423       16.3341818370
  N        19.6509835611       16.0669004815       17.5950325377
  C        20.9690516538       16.3244026297       17.3179344666
  N         8.7823353801       15.9457071815        6.7348056775
  C        10.1003857420       16.2260534480        6.4725975111
  N         6.6219082891       17.5530530879        3.0601563039
  C         6.3584067304       17.2922662479        1.7392729891
  N         6.5091252089        6.7237540414       13.8298533974
  C         6.2333879529        6.4517200853       12.5128876722
  N         6.5270723642        5.1928243380       19.7045099012
  C         6.2405529082        5.4549104400       21.0186388420
  N         6.6511305151       15.9659107210        8.9098310557
  C         6.4028886229       16.2459887473       10.2308783436
  N        15.9426509034       17.6166684900       19.7466716308
  C        16.1933181938       17.3285756181       21.0641589855
  N        15.6836719839        6.8318118768        8.8656197336
  C        15.9593352645        6.5849059059       10.1882431421
  N        15.8383688313        5.1379010481        3.0043564864
  C        16.1202522106        5.4092092917        1.6907331233
  N        15.9393363611       16.0775554761       13.8931688146
  C        16.1987856559       16.3414790102       12.5720380058
 Zn        14.6716799509       14.7796776559       14.7715174379
 Br        13.3484096999       13.5034403495       13.4403444043
 Zn        14.5298733288        3.8386531684        3.8369101828
 Br        13.2593034510        2.4959070512        2.5100039761
 Zn         3.7628996472       14.7125180215        3.8965623327
 Br         2.4346216808       13.4209275655        2.5726287659
 Zn         3.6860173573        3.8673719750       14.7205999076
 Br         2.3548373454        2.5475669008       13.4281408094
 Zn         7.8389575510        7.9658788085       14.6988306900
 Br         9.1143431092        9.2722207726       13.3514862027
 Zn         7.9102553197       18.8357148299        3.9375202510
 Br         9.2242118930       20.1602552195        2.6309407382
 Zn        18.6677351071        8.0163545956        3.8504912292
 Br        20.0067730718        9.3087742178        2.5415537617
 Zn        18.7935329295       18.9185651000       14.7396183191
 Br        20.1096284049       20.2350826784       13.4278915486
 Zn         7.9067365804       14.6573712501        8.0187214723
 Br         9.2112527144       13.3292477018        9.3255782152
 Zn         7.8323634774        3.8974135813       18.8750765891
 Br         9.1496112895        2.5914914077       20.1940048148
 Zn        18.8014237826       14.7719590637       18.8928247474
 Br        20.1096888183       13.4525922221       20.2094077331
 Zn        18.5665879963        3.9655404944        8.0702467575
 Br        19.8648011881        2.6749733030        9.4237160696
 Zn        14.4396402907        8.0576094625        7.8544268515
 Br        12.9217662110        9.5753248661        8.5956431657
 Zn        14.6587259087       18.9205321398       18.8875609445
 Br        13.3388360707       20.2237713729       20.2073056972
 Zn         3.7125989773        8.0605410909       18.8205223448
 Br         2.4121460511        9.3948139667       20.1285865504
 Zn         3.7834464609       18.8086579481        8.0830479127
 Br         2.4745585890       20.1218706955        9.4041613134
 Zn        14.6435234299       14.7380102275        8.0621666195
 Br        13.3183018427       13.4766331682        9.4036378058
 Zn        14.5496331701        3.8913274382       18.8591051162
 Br        13.2581257176        2.5514941907       20.1680774970
 Zn         3.8269138631       14.7170736798       18.8632965433
 Br         2.5003204281       13.4081996195       20.1711169157
 Zn         3.6483702490        3.8492003833        8.0149570558
 Br         2.3248855143        2.5443819584        9.3307668387
 Zn         7.8136523064        7.9456370055        7.9949818104
 Br         9.1116285266        9.2465564399        9.3283930117
 Zn         7.9465881488       18.8807524448       18.8801265631
 Br         9.2433847373       20.2053064275       20.2021080101
 Zn        18.7171059195        8.0397525113       18.8893212586
 Br        20.0598822189        9.3068894894       20.2190006928
 Zn        18.7505096408       18.8860980407        8.0431114391
 Br        20.0687665984       20.2177821700        9.3369233582
 Zn        14.4983226100        8.1314802768       14.8674844245
 Br        12.9484110879        9.6796245040       14.2583128498
 Zn        14.5891448360       18.8427398845        3.9170848448
 Br        13.2611040597       20.1453335350        2.6040627555
 Zn         3.6644183938        8.0183758905        3.8942612225
 Br         2.3611462881        9.3556402062        2.5903714680
 Zn         3.8367268702       18.8334403045       14.7101255478
 Br         2.5230678077       20.1436104481       13.3889348699
 Zn         7.9967283848       14.7198114003       14.7649614662
 Br         9.3125407392       13.4106797803       13.4529269782
 Zn         7.7648151555        3.8403834260        3.8409752630
 Br         9.0688389856        2.5234481489        2.5187775997
 Zn        18.7426645660       14.7204966637        3.9103829996
 Br        20.0491156230       13.3982907100        2.5963469376
 Zn        18.6070439939        4.0153830486       14.6442892208
 Br        19.8964019543        2.7211319610       13.2862890534
 Zn         5.7693593378        5.9535109329       16.7703154830
 Zn        16.7300041723       16.8443683550       16.8228096881
 Zn        16.5481553469        5.9651232772        5.9098916579
 Zn         5.8447147803       16.7497351057        5.9907434275
 Zn         5.7242527096        5.9147734441        5.9440769198
 Zn        16.6721357642       16.7911771408        5.9962577613
 Zn         5.9054829414       16.7809813112       16.8071488902
 Zn        16.5942792349        6.0198624329       16.7995932927
  N         3.5863155381        5.9750374290       16.7610860355
  N        14.3627014379        5.9096512178        5.8610397421
  N        18.9074500742       16.8499240420       16.8196100956
  N         8.0333930002       16.7379245441        5.9740669370
  N        18.7327895091        5.9958907912        5.9860257584
  N         7.9563578391        5.9089005243       16.7622653467
  N         3.6611653789       16.7574894380        5.9964966333
  N        14.5429376585       16.8433236727       16.8362964747
  N        16.5541774924        3.7868538035        5.9693664284
  N        16.7518635358       14.6542219763       16.8205995667
  N        16.7315515855       19.0315668548       16.8133398595
  N        16.5757215673        8.1553278568        5.8647680686
  N         5.8451038261       18.9336327141        6.0083891838
  N         5.8012586097        8.1438553138       16.7691507032
  N         5.7525503477        3.7765764033       16.7981502222
  N         5.8285121268       14.5623699247        5.9653951358
  N         5.8391802874       16.7727564644        3.7987359044
  N         5.7462816053        5.9365873934       14.5811850236
  N        16.7306278042       16.8478069912       19.0011233584
  N        16.4620498671        6.0400670347        8.1268279047
  N         5.7643259138        5.9800543590       18.9528574762
  N         5.8601475491       16.7371256612        8.1700088110
  N        16.6076562656        5.9184425630        3.7568263699
  N        16.7272492334       16.8520228295       14.6314828069
  N         5.6901628742        3.7383816037        5.9198592976
  N         5.9176392245       14.5960399740       16.8114136106
  N        16.6729336192       18.9782707588        5.9790017156
  N        16.6403518970        8.2029052692       16.8655490453
  N         5.8922801121       18.9696905538       16.7931997447
  N         5.7593876872        8.1094381499        5.9332159053
  N        16.5751130296        3.8386885919       16.7219642913
  N        16.7072779754       14.6047224277        6.0091289881
  N         3.7163603098       16.7755479379       16.7844120887
  N        14.4860839752       16.7822544437        5.9907843681
  N        18.8527966657       16.8026644205        5.9790602660
  N         8.0912048505       16.8007614874       16.8252079845
  N        18.7769487024        6.0268654186       16.7434901673
  N         7.9106774396        5.8701798262        5.9292834777
  N         3.5423308159        5.9505723344        5.9718539956
  N        14.4073098180        5.9692206262       16.8343461575
  N        16.6436326800        5.9526011946       18.9584553848
  N        16.6839069568       16.8206622508        8.1795759677
  N        16.6550284522       16.7737526819        3.8084324182
  N        16.5220157094        6.1233266879       14.5849647043
  N         5.7007637452        5.9275326648        3.7600600494
  N         5.9274601743       16.7781664157       14.6200176234
  N         5.8878069684       16.7970776609       18.9877730407
  N         5.7274769871        5.9060591341        8.1293844035
  C        11.3257246513       15.7532364717       15.7879110468
  H        11.3330657633       14.9711182018       15.0190862972
  C        11.1321966988        4.8223526847        4.8358474874
  H        11.1265552675        4.0617072592        4.0459462802
  C         0.4322160953       15.7287285341        4.9255005166
  H         0.4284101066       14.9582140691        4.1450297467
  C         0.3570462056        4.9589136234       15.6722153684
  H         0.3566791524        4.1892194289       14.8911362284
  C        11.1832393990        6.9210408712       15.6745341560
  H        11.1824908364        7.6784598694       14.8829367908
  C        11.2553935481       17.8281513292        4.9412930846
  H        11.2528111026       18.6176160814        4.1800456405
  C         0.3225592297        7.0333797473        4.9309430768
  H         0.3231770973        7.8019438285        4.1483175616
  C         0.4979296036       17.8714914697       15.7434146281
  H         0.5045878373       18.6461124424       14.9670473853
  C        11.2642174990       15.6740173127        7.0155021035
  H        11.2667065719       14.8849346257        7.7771236915
  C        11.1802216717        4.8839715320       17.8613688774
  H        11.1779277155        4.1355341190       18.6626995539
  C         0.4850514821       15.7621100472       17.8644672145
  H         0.4789737326       14.9894846539       18.6428474894
  C         0.3135220770        4.9387391497        7.0663735732
  H         0.3127488956        4.1707731178        7.8491765813
  C        11.1403697406        6.8950186892        6.9888908129
  H        11.1437435414        7.6640010523        7.7695860315
  C        11.3081871172       17.8891894769       17.8812945679
  H        11.3019986221       18.6715777416       18.6497824375
  C         0.3669614088        7.0573757000       17.8038254606
  H         0.3674120337        7.8264988075       18.5858997865
  C         0.4413585986       17.8300909590        7.0548878185
  H         0.4452035130       18.6016258471        7.8343820568
  C        15.6768248567       11.4408496534       15.7571865516
  H        14.9015235774       11.4530504986       14.9830209712
  C        15.5715402468        0.5418634179        4.9090617250
  H        14.8044200301        0.5257311046        4.1252086542
  C         4.7336609985       11.3528306891        4.8976129856
  H         3.9521747299       11.3656518773        4.1282925621
  C         4.7660038187        0.5308456457       15.7347974824
  H         3.9921834602        0.5094085604       14.9578961360
  C        15.6161991803       11.3784222353        7.0238604426
  H        14.8407990272       11.3764247007        7.7983563601
  C        15.6062767461        0.6050548364       17.8248447346
  H        14.8396175993        0.5987535506       18.6093362492
  C         4.7991496020       11.3823377049       17.8342041362
  H         4.0121995231       11.3924260158       18.5979635054
  C         4.7028406941        0.5047298238        7.0192072737
  H         3.9301168410        0.4932267991        7.7973996137
  C         6.9454100365       11.3574138553       15.7523184984
  H         7.7313225979       11.3480381018       14.9874257934
  C         6.8101103916        0.5271702387        4.8948880677
  H         7.5818350882        0.5386321454        4.1156260152
  C        17.7050289525       11.3817733312        4.8859012302
  H        18.4716203259       11.3844170098        4.1018422179
  C        17.6952623860        0.6246872815       15.6837291592
  H        18.4609545930        0.6310371276       14.8987495375
  C         6.8645665449       11.3194539566        6.9953267733
  H         7.6451712313       11.3070188192        7.7656105564
  C         6.8749292303        0.5762292956       17.8562021644
  H         7.6476796612        0.5982562221       18.6341550012
  C        17.7634198503       11.4165632821       17.8966738754
  H        18.5295518574       11.4062378122       18.6811805062
  C        17.6624920250        0.5832976882        7.0477706419
  H        18.4290815456        0.5992868092        7.8317907780
  C        15.6361990505       15.7889452972       11.4180647666
  H        14.8553734180       15.0188646120       11.4302102186
  C        15.5783014737        4.8640828957        0.5260641528
  H        14.8027101296        4.0885486399        0.5151584862
  C         4.8018105668       15.7336402401        0.5607679577
  H         4.0255381613       14.9589168900        0.5496146840
  C         4.6786633454        4.8663245620       11.3634104781
  H         3.9096318335        4.0846573346       11.3701777700
  C         6.9700689026       15.7080803938       11.3901787064
  H         7.7481233540       14.9352236651       11.3857267319
  C         6.7721559112        4.8888171278        0.5380684057
  H         7.5409018770        4.1065909780        0.5397758766
  C        17.7452066846       15.7495220103        0.5847471923
  H        18.5215654697       14.9748923525        0.5858499382
  C        17.5308935335        5.0347262498       11.3600523630
  H        18.3046018730        4.2568252884       11.3641172828
  C        15.4253492305        7.1511290500       11.3515580444
  H        14.6531148840        7.9268280514       11.3450316503
  C        15.6254379419       17.8610880783        0.5839879588
  H        14.8478708766       18.6346087015        0.5840143610
  C         4.6745606923        7.0227801598        0.5345964007
  H         3.9068370463        7.8060320228        0.5325258949
  C         4.8471533733       17.8150936152       11.3990609093
  H         4.0686034590       18.5876545312       11.4035011570
  C         6.7721821910        7.0018010034       11.3469667999
  H         7.5400902272        7.7848857674       11.3397975958
  C         6.9157381083       17.8493667483        0.5851629111
  H         7.6901614986       18.6258626253        0.5962520201
  C        17.6949452320        6.9826572315        0.5495558241
  H        18.4696134873        7.7591263678        0.5602957930
  C        17.7618734648       17.8922915275       11.3926889674
  H        18.5410469064       18.6638892067       11.3807651519
 Xe        11.4496951352       11.1601563077       11.3955411167
