     409
 i =      56, E =    -5133.8738614058
  N         2.8831471730        5.2227885119       16.0132838352
  C         1.5637610620        5.4850786946       16.2767080071
  N        13.6864288148        5.1458777347        5.1580951737
  C        12.3702977511        5.4243984060        5.4306511519
  N        19.5755206662       17.5507588642       16.0019566240
  C        20.8930010692       17.2978671200       16.2852094760
  N         8.7539954934       17.5937498507        5.2177555619
  C        10.0704385892       17.3057120463        5.4748666600
  N        19.5568708302        5.1634749505        6.7247183719
  C        20.8731747115        5.4535051005        6.4711142678
  N         8.7383556578        5.2216321097       17.5907143716
  C        10.0557313840        5.4759986484       17.3046034745
  N         2.8808841446       17.5808137584        6.7659590623
  C         1.5665201139       17.3014629825        6.4906731847
  N        13.7200419635       17.5772280052       17.5868740089
  C        12.4000561473       17.3149939997       17.3198563838
  N        15.8486971901        2.9953273338        5.1635149408
  C        16.1237590561        1.6789224383        5.4337673524
  N        15.8616486174       13.8422633581       16.0187350920
  C        16.1293752642       12.5221525494       16.2836426586
  N        15.8824852866       19.7042617234       17.5624730689
  C        16.1435438005       21.0209366236       17.2830932297
  N        15.8613901835        8.8639613724        6.7074914046
  C        16.1335472386       10.1827610611        6.4415308808
  N         6.5841124054       19.7418706542        5.2129610177
  C         6.3019699728       21.0584125672        5.4734978648
  N         6.5737291478        8.9370149490       16.0474472697
  C         6.3090371634       10.2561185634       16.3196428676
  N         6.5852543441        3.0803948357       17.5812456270
  C         6.3185505523        1.7618846322       17.3152460056
  N         6.5790239966       13.8769394050        6.7686387927
  C         6.3140477889       12.5581133793        6.4930265187
  N         5.0476510020       16.0400880355        3.0607243598
  C         5.3181451028       16.3153643142        1.7449707996
  N         5.0252371232        5.2212565688       13.8661103048
  C         5.2973149650        5.4894216787       12.5488554237
  N        17.4358356301       15.9905900360       19.7121262427
  C        17.1638100797       16.2553480234       21.0302621563
  N        17.4118958608        5.1373056589        8.8751585925
  C        17.1440910576        5.4123817367       10.1925272811
  N         5.0059501211        6.7711140013       19.7320605892
  C         5.2703392529        6.4958526932       21.0492055159
  N         5.0278621689       17.6094404566        8.9299072182
  C         5.3029554176       17.3447538802       10.2478231951
  N        17.4055079713        6.6973338751        3.0121102821
  C        17.1357118079        6.4285410843        1.6948871994
  N        17.4238318913       17.5500593768       13.8488301134
  C        17.1508229414       17.2781420361       12.5323241059
  N         5.0009824532        3.0549640306        6.7481252036
  C         5.2720431023        1.7373250359        6.4798527328
  N         5.0299935181       13.8966800801       17.6114151757
  C         5.2987082446       12.5789585865       17.3398140822
  N        17.4213980565       19.6880511699        6.7276491584
  C        17.1486826465       21.0037858120        6.4535860877
  N        17.4144335699        8.8794785045       17.5632509019
  C        17.1448060087       10.1971227145       17.2931511203
  N         5.0410088969       19.7586611414       16.0438778760
  C         5.3091237266       21.0768236240       16.3097620432
  N         5.0279356692        8.9235407829        5.1866938832
  C         5.3006490251       10.2394069381        5.4635069107
  N        17.4152640094        3.0193109027       15.9889188200
  C        17.1471760076        1.7014153817       16.2586779212
  N        17.4365187375       13.8225750925        5.1692690700
  C        17.1587401607       12.5049090175        5.4333441837
  N         2.8917153736       16.0563796334       17.6030753485
  C         1.5742804831       16.3129807128       17.3233812947
  N        13.7107093991       15.9803680644        6.7224918583
  C        12.3913097114       16.2593608166        6.4644550445
  N        19.5830218704       15.9893846227        5.1848691585
  C        20.8978063885       16.2674593292        5.4609239989
  N         8.7480020592       16.0517549820       16.0475482366
  C        10.0687566665       16.3137911977       16.3124983577
  N        19.5549540198        6.7330677338       17.5532335505
  C        20.8742225038        6.4772191302       17.2834636292
  N         8.7383657003        6.7321000104        6.7237458685
  C        10.0551820890        6.4552626081        6.4518715992
  N         2.8668409894        6.7792827773        5.2144697086
  C         1.5502831465        6.4990757759        5.4780382573
  N        13.7001682251        6.7163758234       15.9845422889
  C        12.3800585633        6.4603208529       16.2618106881
  N        15.8500440898        5.1567897841       19.6935786821
  C        16.1201182579        5.4209462164       21.0121150323
  N        15.8678337498       15.9938791427        8.8906993532
  C        16.1335310488       16.2635708647       10.2103923085
  N        15.8687313021       17.5318630412        3.0279116271
  C        16.1424476639       17.2643995842        1.7110494326
  N        15.8758400581        6.7180758356       13.8328675837
  C        16.1390252759        6.4420390526       12.5141719455
  N         6.5511040759        5.1996041497        3.0429633002
  C         6.2803156192        5.4722587334        1.7270092794
  N         6.5857279334       16.0629979919       13.8901315579
  C         6.3193908608       16.3329005972       12.5711517203
  N         6.6043979621       17.6111137667       19.7503663251
  C         6.3349599664       17.3383244183       21.0677893624
  N         6.5850144483        6.7536677799        8.9025003135
  C         6.3152279179        6.4936446852       10.2232900182
  N        19.5682848507       17.5421724711        6.7429707027
  C        20.8875204521       17.2809896621        6.4785637052
  N         8.7617459077       17.6103974964       17.5996848996
  C        10.0775378060       17.3314042484       17.3265068001
  N         2.8706347829        5.2234012803        6.7708812715
  C         1.5529021993        5.4836036710        6.4939911341
  N        13.6937869296        5.1686758051       17.5472945267
  C        12.3772391967        5.4501816995       17.2832312814
  N         2.8883790746       17.6102861010       16.0471098301
  C         1.5719287355       17.3278747311       16.3073937623
  N        13.7088387361       17.5419567175        5.1747580646
  C        12.3916413917       17.2802308368        5.4540344056
  N        19.5698609587        5.1785099336       15.9974274545
  C        20.8845769980        5.4617447842       16.2679366887
  N         8.7273822542        5.1781738165        5.1682448234
  C        10.0474479010        5.4399951200        5.4358183442
  N         6.6013291520       19.7648131754       17.5951651270
  C         6.3270090755       21.0814321447       17.3232034164
  N         6.5854978456        8.9131004286        6.7399459589
  C         6.3167499235       10.2339617762        6.4790731025
  N         6.5526141799        3.0540328574        5.1892602434
  C         6.2860246425        1.7374167958        5.4628203592
  N         6.5819722466       13.8972459521       16.0535911483
  C         6.3128821121       12.5787141709       16.3226654376
  N        15.8523321472        3.0170588683       17.5374758235
  C        16.1287682435        1.7003540843       17.2716023687
  N        15.8833177429       13.8250655813        6.7263624943
  C        16.1449292774       12.5058562973        6.4511715506
  N        15.8655968736       19.6810518017        5.1722261627
  C        16.1323387440       20.9991885454        5.4388410355
  N        15.8597626290        8.8800207861       16.0077385624
  C        16.1277240285       10.1987709326       16.2788079626
  N        17.4069532507        6.7109097390       19.6999326038
  C        17.1368554987        6.4352722830       21.0156511315
  N        17.4252686102       17.5460474990        8.8938778709
  C        17.1521264878       17.2763404497       10.2109161290
  N         4.9983000743        6.7579386382        3.0464572212
  C         5.2659482756        6.4890834753        1.7286701303
  N         5.0321949779       17.6199030986       13.8873143561
  C         5.3046276978       17.3496422775       12.5699246070
  N        17.4282465342       15.9796085590        3.0283335104
  C        17.1590636045       16.2496274751        1.7107286289
  N        17.4258574073        5.1576647790       13.8330743228
  C        17.1509968044        5.4223612953       12.5149948122
  N         5.0444059124       16.0588781416       19.7484813175
  C         5.3168003431       16.3250482130       21.0656323268
  N         5.0292519011        5.1996304825        8.9118357727
  C         5.2995804692        5.4778129083       10.2277340572
  N        17.4314523005       19.7033934166       16.0008024409
  C        17.1565205033       21.0210206046       16.2650415150
  N        17.4095583817        8.8649482242        5.1455513825
  C        17.1452944305       10.1825955085        5.4219280276
  N         5.0301546096        3.0726662745       16.0248949530
  C         5.3027388196        1.7567862179       16.2998608336
  N         5.0324123703       13.8791676689        5.2048731710
  C         5.3022193460       12.5612009783        5.4733399519
  N        17.4104848769        3.0011809835        6.7132313316
  C        17.1424869639        1.6831482871        6.4463383924
  N        17.4264661026       13.8354571858       17.5641174718
  C        17.1505181176       12.5187984612       17.2940919388
  N         5.0232114087       19.7396824530        6.7637856432
  C         5.2844257982       21.0572528314        6.4872989490
  N         5.0175342106        8.9392485834       17.6015739132
  C         5.2931287561       10.2569018122       17.3354054259
  N        19.5528514195        6.7183233850        5.1683981613
  C        20.8704684982        6.4686035816        5.4551660011
  N         8.7369018311        6.7659917410       16.0255600579
  C        10.0561949595        6.4850033355       16.2821817448
  N         2.8676981677        6.7800734965       17.5675119266
  C         1.5532635249        6.5014499020       17.2915254688
  N        13.6987182150        6.7027198611        6.7129881186
  C        12.3781621939        6.4405818418        6.4462455632
  N         2.8965389714       16.0308951286        5.2046428974
  C         1.5771088508       16.2891135664        5.4719310809
  N        13.7080904058       16.0206492029       16.0333251026
  C        12.3915165417       16.2981511100       16.3052907808
  N        19.5790673229       15.9952321078       17.5571457578
  C        20.8954221234       16.2823027329       17.3009154720
  N         8.7474354340       16.0287944014        6.7628219118
  C        10.0675264227       16.2835662777        6.4842847855
  N         6.6053753519       17.5930376113        3.0674767862
  C         6.3355304536       17.3290261555        1.7487248528
  N         6.5736015505        6.7825093336       13.8668892704
  C         6.3100711495        6.5080860229       12.5474318063
  N         6.5655727117        5.2200526970       19.7318477292
  C         6.2874413373        5.4818116721       21.0485455646
  N         6.5834513729       16.0550179550        8.9297155473
  C         6.3186151921       16.3288881796       10.2484494465
  N        15.8862784548       17.5515157713       19.7154440771
  C        16.1510247755       17.2735747763       21.0317458767
  N        15.8634151778        6.6994368479        8.8722404727
  C        16.1328591305        6.4325935100       10.1912515056
  N        15.8466436089        5.1442600523        3.0102156302
  C        16.1182586717        5.4146653448        1.6928227976
  N        15.8593016022       16.0034243129       13.8546787785
  C        16.1295684096       16.2676682648       12.5345230396
 Zn        14.5733544237       14.7301641046       14.7507909615
 Br        13.2512016102       13.4307930168       13.4453296568
 Zn        14.5516258887        3.8496001673        3.8708583246
 Br        13.2322756105        2.5395268681        2.5569122448
 Zn         3.7516854075       14.7441621520        3.9049364574
 Br         2.4378231746       13.4317688513        2.5887410112
 Zn         3.7396143935        3.9265020660       14.7237617307
 Br         2.4264275924        2.6086815607       13.4123070532
 Zn         7.8502591332        8.0596319451       14.7606653946
 Br         9.1648730450        9.3754173235       13.4627553869
 Zn         7.8940644335       18.8868549049        3.9331675126
 Br         9.2073444470       20.2005849852        2.6163872305
 Zn        18.7001431870        7.9984905639        3.8575152976
 Br        20.0160929050        9.3085298902        2.5413457659
 Zn        18.7187318071       18.8385873456       14.7069744280
 Br        20.0346239641       20.1478658677       13.3881716773
 Zn         7.8542389022       14.7631457076        8.0534441774
 Br         9.1626441512       13.4563563485        9.3664239667
 Zn         7.8724594998        3.9386699797       18.8810095938
 Br         9.1811632667        2.6186379766       20.1957439837
 Zn        18.7236021013       14.6985611215       18.8467956012
 Br        20.0403589427       13.3796837541       20.1554445791
 Zn        18.7079838793        3.8528433154        8.0065018924
 Br        20.0216320359        2.5370265612        9.3193746604
 Zn        14.5852535261        7.9856455547        7.9954606115
 Br        13.2763832646        9.2961672845        9.3055400331
 Zn        14.6011546720       18.8598969769       18.8735255444
 Br        13.3018296363       20.1819068065       20.1949233268
 Zn         3.7172976732        8.0672368441       18.8763527312
 Br         2.3973908567        9.3764594392       20.1905626243
 Zn         3.7291508301       18.8835791237        8.0587259886
 Br         2.4109167924       20.2028744039        9.3643026707
 Zn        14.5995960429       14.7064521466        8.0052162426
 Br        13.2924231089       13.3914075641        9.3117444800
 Zn        14.5540733116        3.8704446062       18.8294551940
 Br        13.2384985243        2.5579054506       20.1447920332
 Zn         3.7427457568       14.7669562955       18.8983562513
 Br         2.4290780484       13.4562761487       20.2172337370
 Zn         3.7274792604        3.9173058392        8.0562724291
 Br         2.4089684939        2.6090521565        9.3724626245
 Zn         7.8714036770        8.0179261627        8.0083322907
 Br         9.1956655117        9.3231107229        9.3075293903
 Zn         7.8979919867       18.9044846266       18.8865024714
 Br         9.2163551524       20.2164733364       20.2001541516
 Zn        18.6995276015        8.0120861236       18.8565976945
 Br        20.0121712640        9.3252131473       20.1733260645
 Zn        18.7120378278       18.8367314283        8.0293184106
 Br        20.0241808506       20.1555066612        9.3414884723
 Zn        14.5944278388        8.0004899356       14.7124129223
 Br        13.2913953393        9.3098400171       13.3965399305
 Zn        14.5695536854       18.8251114736        3.8822066659
 Br        13.2613364647       20.1428178455        2.5652724606
 Zn         3.7231991584        8.0638146293        3.9071782206
 Br         2.4052720886        9.3812528585        2.5994113677
 Zn         3.7396900298       18.9056014909       14.7568631127
 Br         2.4267985774       20.2220242413       13.4425169191
 Zn         7.8592669567       14.7725747313       14.7676581433
 Br         9.1646248505       13.4610252331       13.4541894339
 Zn         7.8443021654        3.8967856682        3.8881776613
 Br         9.1391216602        2.5745711011        2.5622169924
 Zn        18.7285599677       14.6951346622        3.8885376332
 Br        20.0469683061       13.3869913207        2.5705706482
 Zn        18.7197039823        3.8786424909       14.7071922246
 Br        20.0358860066        2.5578754605       13.3997763571
 Zn         5.7965429362        6.0046576545       16.8090190709
 Zn        16.6536010530       16.7739242614       16.7825151103
 Zn        16.6233534417        5.9241506554        5.9393901709
 Zn         5.8131068917       16.8186648608        5.9969764801
 Zn         5.7918027600        5.9855176135        5.9665827605
 Zn        16.6524806850       16.7612091350        5.9527977654
 Zn         5.8217106921       16.8333781571       16.8254402733
 Zn        16.6334431466        5.9451832899       16.7695016912
  N         3.6218010492        6.0050010915       16.7936990003
  N        14.4388020359        5.9202508280        5.9343480982
  N        18.8307892496       16.7641589409       16.7722664051
  N         8.0040864344       16.8198709559        5.9961456309
  N        18.8080003666        5.9300501345        5.9374764339
  N         7.9908460361        6.0009600735       16.8157032695
  N         3.6353128714       16.8111461416        5.9869776977
  N        14.4608987162       16.7947272888       16.8085499524
  N        16.6276347937        3.7448136964        5.9378242982
  N        16.6460366190       14.5854069354       16.7925749882
  N        16.6605351696       18.9569130710       16.7857502075
  N        16.6335340514        8.1174193875        5.9243358050
  N         5.8093465557       18.9944348385        5.9930592263
  N         5.7927561388        8.1917265390       16.8223883298
  N         5.8063225587        3.8232588928       16.8010525111
  N         5.8047517123       14.6248688170        5.9887319308
  N         5.8262141847       16.8137460688        3.8111282744
  N         5.7973015358        6.0035005902       14.6134573730
  N        16.6629018934       16.7746020153       18.9668384112
  N        16.6371397379        5.9167109275        8.1269884455
  N         5.7897911596        5.9995209027       18.9854231861
  N         5.8027909358       16.8292234131        8.1832399777
  N        16.6254139172        5.9207482307        3.7577693268
  N        16.6423726594       16.7786979550       14.5980146456
  N         5.7763697456        3.8014946180        5.9674883123
  N         5.8062544237       14.6439145709       16.8328120813
  N        16.6448668823       18.9378969625        5.9517142624
  N        16.6376937384        8.1330325506       16.7846682120
  N         5.8226491610       19.0151131984       16.8206691584
  N         5.8056613415        8.1719054623        5.9596253350
  N        16.6318973370        3.7647572164       16.7623257169
  N        16.6636879873       14.5703701923        5.9507872452
  N         3.6371744522       16.8396316308       16.8299586423
  N        14.4568031421       16.7569666924        5.9436357637
  N        18.8290908387       16.7620200553        5.9611450476
  N         8.0083592362       16.8350878926       16.8255351338
  N        18.8155487477        5.9488429646       16.7757179364
  N         7.9858937824        5.9592901105        5.9473579873
  N         3.6150907999        6.0057028884        5.9953808746
  N        14.4435849411        5.9364972577       16.7627724744
  N        16.6282093021        5.9370665713       18.9499058095
  N        16.6485126409       16.7694741115        8.1453990908
  N        16.6476648272       16.7552089486        3.7745724162
  N        16.6535776228        5.9409708999       14.5795328452
  N         5.7760817083        5.9781956403        3.7912291401
  N         5.8074810079       16.8410583158       14.6354911781
  N         5.8236648269       16.8363685977       19.0030188831
  N         5.8069798209        5.9724764014        8.1602592596
  C        11.2248560871       15.7558498928       15.7601154664
  H        11.2169675901       14.9795451178       14.9855318946
  C        11.2039855097        4.8828734478        4.8837287144
  H        11.1967068953        4.1075928247        4.1080452389
  C         0.4249114444       15.7295289602        4.9149771701
  H         0.4371904922       14.9564949671        4.1370742077
  C         0.4114884809        4.9239455413       15.7214488260
  H         0.4236310413        4.1482415541       14.9461888026
  C        11.2190358524        7.0177924107       15.7183128427
  H        11.2201543515        7.7884684832       14.9381480204
  C        11.2322078791       17.8452364088        4.9177240403
  H        11.2341819952       18.6252314967        4.1467078010
  C         0.3885516419        7.0355037148        4.9183160356
  H         0.3856758280        7.8115321918        4.1433061848
  C         0.4106991946       17.8641241865       15.7470317525
  H         0.4078101222       18.6407229866       14.9725481132
  C        11.2283503357       15.7180515650        7.0198340622
  H        11.2266832017       14.9381207540        7.7907336851
  C        11.2154736324        4.9166131868       17.8462542987
  H        11.2140815691        4.1458458031       18.6264659291
  C         0.4167199454       15.7487977403       17.8637236018
  H         0.4199777558       14.9749223650       18.6409046620
  C         0.3945935976        4.9206353826        7.0345760304
  H         0.3972754166        4.1461495899        7.8111337142
  C        11.2213424462        6.9971254853        6.9985239679
  H        11.2281343239        7.7723983601        7.7741292475
  C        11.2441951309       17.8734053532       17.8718149385
  H        11.2522860967       18.6497892128       18.6463781581
  C         0.3863292754        7.0406957946       17.8365201356
  H         0.3741883054        7.8165829820       18.6116020559
  C         0.3996149942       17.8401194175        7.0361921115
  H         0.3875545358       18.6147201852        7.8125899031
  C        15.5767781283       11.3619820455       15.7338371239
  H        14.7986410747       11.3639898445       14.9610162268
  C        15.5767612594        0.5159667410        4.8872406647
  H        14.7991639960        0.5102736281        4.1137550517
  C         4.7528726796       11.4029671978        4.9183779303
  H         3.9780822779       11.4070262881        4.1422131140
  C         4.7547739811        0.5931155645       15.7560289667
  H         3.9773698652        0.5869653488       14.9824081769
  C        15.5911673611       11.3446918171        6.9971365582
  H        14.8180171750       11.3453318778        7.7748830515
  C        15.5852573701        0.5399123051       17.8265599480
  H        14.8094252707        0.5380802177       18.6017890084
  C         4.7473814896       11.4181882060       17.8880782145
  H         3.9723829957       11.4188003609       18.6640537662
  C         4.7267628615        0.5762492952        7.0323896790
  H         3.9506312486        0.5739826820        7.8073096142
  C         6.8605929744       11.4172225766       15.7716027913
  H         7.6353781446       11.4170963075       14.9954104969
  C         6.8425829100        0.5790547114        4.9165446367
  H         7.6167526440        0.5815814875        4.1396578540
  C        17.6994758809       11.3433341380        4.8761940289
  H        18.4728191882       11.3424654282        4.0985430218
  C        17.7008611038        0.5418276008       15.7108072002
  H        18.4755124266        0.5431801767       14.9344282720
  C         6.8639804826       11.3934477215        7.0363478552
  H         7.6385464311       11.3892730898        7.8126835140
  C         6.8727274444        0.6053404569       17.8690976721
  H         7.6479304180        0.6118176820       18.6449069971
  C        17.6990085316       11.3564100845       17.8411347180
  H        18.4776449872       11.3539237122       18.6134401284
  C        17.6964462457        0.5265639139        6.9992082762
  H        18.4722943607        0.5314795230        7.7743695633
  C        15.5795516397       15.7186805395       11.3724883760
  H        14.8007173998       14.9466274571       11.3721956233
  C        15.5685142970        4.8684838284        0.5306013914
  H        14.7910969224        4.0948720629        0.5271750108
  C         4.7659587037       15.7717047862        0.5834271817
  H         3.9881859675       14.9984086516        0.5803044417
  C         4.7494038366        4.9338232400       11.3904323847
  H         3.9741491973        4.1580774405       11.3938529522
  C         6.8690679952       15.7818231102       11.4105054840
  H         7.6437106491       15.0054870125       11.4116404007
  C         6.8328194327        4.9255123786        0.5671476573
  H         7.6074406094        4.1491201822        0.5665514681
  C        17.7103057146       15.7011529008        0.5501582079
  H        18.4847164910       14.9244920169        0.5498624753
  C        17.6939966744        4.8649723699       11.3544963153
  H        18.4660348342        4.0860541681       11.3553486728
  C        15.5883911413        6.9886672342       11.3519676628
  H        14.8162491776        7.7674458784       11.3507856436
  C        15.5968175537       17.8190767288        0.5515419180
  H        14.8223753382       18.5956661685        0.5513604786
  C         4.7168001194        7.0418364215        0.5694908511
  H         3.9414024320        7.8175390046        0.5700595585
  C         4.7556856091       17.8980574004       11.4081010801
  H         3.9807976219       18.6741413210       11.4069419709
  C         6.8613276281        7.0512602692       11.3832324013
  H         7.6360035564        7.8274797198       11.3796413301
  C         6.8861331048       17.8826381859        0.5902906994
  H         7.6628623070       18.6569211943        0.5938705628
  C        17.6874021394        6.9808327615        0.5370806130
  H        18.4635394449        7.7557654164        0.5398105176
  C        17.7033808508       17.8241647052       11.3714098396
  H        18.4825630314       18.5959613335       11.3712158127
 Xe        11.2218633152       11.3780347560       11.3781701400
