     409
 i =      56, E =    -5133.8577394782
  N         2.9299018995        5.2956208728       15.9530534457
  C         1.6042520825        5.5341067939       16.2184871845
  N        13.7397724101        5.0729292844        5.1056845430
  C        12.4207004199        5.3314327392        5.3860898417
  N        19.5305824747       17.5288938254       15.9767187627
  C        20.8489679904       17.2942336275       16.2721800824
  N         8.7432010080       17.6016315078        5.2509827318
  C        10.0574683995       17.2948468783        5.4988192638
  N        19.6072043082        5.1527605329        6.7298189797
  C        20.9234626855        5.4585182218        6.4897789947
  N         8.7763495281        5.2246634715       17.6409954874
  C        10.0924132180        5.4372671272       17.3150678078
  N         2.8578116579       17.6021912454        6.7819051106
  C         1.5444803890       17.3088158211        6.5100361694
  N        13.6916504380       17.5775787460       17.5903718097
  C        12.3671741176       17.3247739782       17.3344955395
  N        15.9157875634        2.9547346928        5.1281307195
  C        16.1728268222        1.6383986050        5.4133578523
  N        15.7871236089       13.8229760430       16.0123215323
  C        16.0650082652       12.5032609934       16.2719648831
  N        15.8688611633       19.6986231887       17.5561076310
  C        16.1419981542       21.0126757117       17.2732027114
  N        15.8526173495        8.8088980498        6.6711667299
  C        16.1232629252       10.1303181815        6.4177275050
  N         6.5729736189       19.7624560536        5.2302566959
  C         6.2993921962       21.0805067064        5.4935034839
  N         6.5298478250        8.9973765698       16.0846138362
  C         6.2443765096       10.3157185619       16.3416003406
  N         6.6084951402        3.1306592743       17.5536742513
  C         6.3280017826        1.8160116924       17.2871837050
  N         6.5286056141       13.8938049996        6.8150138503
  C         6.2614995776       12.5788091929        6.5244537837
  N         5.0426599396       16.0628282827        3.0831939519
  C         5.3110507706       16.3431546265        1.7688175056
  N         5.1723584338        5.3964306919       13.8603681096
  C         5.4521651252        5.6620355782       12.5438103031
  N        17.4105383827       15.9703373060       19.7065895792
  C        17.1482754241       16.2359837488       21.0274085174
  N        17.4456483579        5.1009408752        8.8511534903
  C        17.1831475624        5.3857915213       10.1670953572
  N         4.9927355294        6.7783293417       19.7293778451
  C         5.2554423639        6.4960531386       21.0447981177
  N         5.0115070786       17.6338727015        8.9455231804
  C         5.2866799368       17.3780500077       10.2652098790
  N        17.4593741547        6.6732865995        2.9869862053
  C        17.1884365493        6.4139178080        1.6676820149
  N        17.3596442964       17.5190391635       13.8428133653
  C        17.0876929815       17.2394258064       12.5285983109
  N         5.0566062909        3.0949549510        6.7911057349
  C         5.3034323683        1.7712897469        6.5182542216
  N         4.9749370102       13.9562979836       17.6433584775
  C         5.2314216330       12.6374261511       17.3653954288
  N        17.4025876080       19.6411095784        6.7479993394
  C        17.1524501029       20.9585528391        6.4606330100
  N        17.4054373207        8.8674849196       17.5153639961
  C        17.1138142003       10.1826534710       17.2570777807
  N         5.0161816382       19.8155646812       16.0434606037
  C         5.3004294348       21.1346792291       16.2945993865
  N         5.0383259949        8.9529496098        5.1339294398
  C         5.2841760652       10.2673790351        5.4428134584
  N        17.4524572759        2.9985041745       15.9681194944
  C        17.1709195006        1.6825332558       16.2384312080
  N        17.4242012152       13.7839060489        5.1816677821
  C        17.1512291914       12.4631270070        5.4363942834
  N         2.8523025990       16.1122747025       17.6298475487
  C         1.5345807819       16.3498492598       17.3353601471
  N        13.6854501582       15.9111837069        6.7185910742
  C        12.3693754778       16.2086506704        6.4656087253
  N        19.5711208936       15.9566061932        5.2016267572
  C        20.8836252603       16.2479132569        5.4784236387
  N         8.7008921725       16.0808024298       16.0888612152
  C        10.0234298272       16.3355474560       16.3480978301
  N        19.5803639615        6.7362825707       17.5121417437
  C        20.9016826885        6.4919745219       17.2401971162
  N         8.7923691433        6.6540073266        6.6772272745
  C        10.1064320360        6.3536525348        6.4194299388
  N         2.9097980489        6.8069393040        5.2404115122
  C         1.5965474966        6.5179688337        5.5071384596
  N        13.7256088825        6.6233981390       15.9172043953
  C        12.4100079893        6.3611786948       16.2066947120
  N        15.8982069675        5.1489051134       19.6677138595
  C        16.1728621168        5.4118206650       20.9843336964
  N        15.8142807354       15.9290540759        8.8928954839
  C        16.0744175989       16.2090281834       10.2118235001
  N        15.8630441367       17.4982682587        3.0347943608
  C        16.1382055027       17.2391425536        1.7163318221
  N        15.9165101652        6.7064622391       13.8008211292
  C        16.1832797982        6.4288100661       12.4836632950
  N         6.5418226126        5.1857795966        3.0281520111
  C         6.2667456722        5.4619583280        1.7151257076
  N         6.5624166223       16.1179017066       13.9162494376
  C         6.3005999569       16.3832642406       12.5957401504
  N         6.5739215644       17.6622842811       19.7748689580
  C         6.3165364803       17.3796150537       21.0929387472
  N         6.7550528541        6.8869139350        8.8860054037
  C         6.4792770073        6.6425724687       10.2085660912
  N        19.5418326679       17.4993787499        6.7693799482
  C        20.8640366286       17.2559368240        6.5015446437
  N         8.7291574499       17.6549411951       17.6248542530
  C        10.0432848304       17.3621258434       17.3528995700
  N         2.9281454771        5.2793524450        6.8236490793
  C         1.6059265274        5.5177135071        6.5381563447
  N        13.7348034124        5.1329252845       17.5349648183
  C        12.4148901835        5.3921924429       17.2652029654
  N         2.8450180478       17.6589431764       16.0653895515
  C         1.5288261846       17.3603643012       16.3148791628
  N        13.6974126381       17.4943626915        5.1902818490
  C        12.3780927092       17.2430831979        5.4691567239
  N        19.6077500388        5.1834792026       15.9532529539
  C        20.9213856529        5.4815013992       16.2195279725
  N         8.7724949907        5.1377285140        5.0877544924
  C        10.0950027926        5.3641747924        5.3789777585
  N         6.5641644419       19.8193682106       17.6084521956
  C         6.3077763441       21.1360837878       17.3189058793
  N         6.5781609147        8.9345857615        6.7004600630
  C         6.2881618312       10.2563476726        6.4693320583
  N         6.5720087487        3.0716877946        5.1961723941
  C         6.2975693426        1.7597008513        5.4814784486
  N         6.5037980278       13.9537706121       16.0625824092
  C         6.2277760428       12.6375176156       16.3329038118
  N        15.8969954134        3.0098179005       17.5242913809
  C        16.1579230410        1.6914681672       17.2565275033
  N        15.8563033704       13.7684828209        6.7260966173
  C        16.1273722787       12.4528781063        6.4440154170
  N        15.8577178457       19.6420420443        5.1826292895
  C        16.1429895484       20.9588280765        5.4390303961
  N        15.8249058454        8.8563371178       15.9844351535
  C        16.0811346848       10.1779095255       16.2582879671
  N        17.4373892689        6.7188598071       19.6698332746
  C        17.1783241505        6.4370322745       20.9872103017
  N        17.3734204556       17.4812805390        8.8940963085
  C        17.0945017469       17.2201963383       10.2102632901
  N         4.9940506888        6.7491075698        3.0403979373
  C         5.2554113027        6.4814043129        1.7219806428
  N         4.9992156953       17.6642276302       13.9036973366
  C         5.2797118882       17.3934824715       12.5878501999
  N        17.4211181320       15.9443587533        3.0282809888
  C        17.1527750197       16.2222028737        1.7107576091
  N        17.4598574131        5.1384455018       13.8072423649
  C        17.1906089545        5.4046239579       12.4885710703
  N         5.0096661399       16.1149281541       19.7752609667
  C         5.2951077297       16.3696606827       21.0912883931
  N         5.1890096643        5.3352659437        8.9087891181
  C         5.4608317114        5.6293808342       10.2215510983
  N        17.4046077458       19.6815078934       15.9816523046
  C        17.1475385513       21.0017785975       16.2477374281
  N        17.4252874276        8.8262404589        5.1336837987
  C        17.1492642034       10.1410066913        5.4124236453
  N         5.0865778822        3.1393760242       15.9654340980
  C         5.3306396184        1.8184280819       16.2535657443
  N         5.0052766085       13.9096200101        5.2282904419
  C         5.2665009334       12.5894221364        5.4903093610
  N        17.4671875721        2.9580106014        6.6894127312
  C        17.1845188778        1.6395613960        6.4331157528
  N        17.3719893142       13.8210550066       17.5389136501
  C        17.0992952354       12.5038160664       17.2687992364
  N         5.0202751695       19.7695025421        6.7896805078
  C         5.2907514072       21.0870934801        6.5161845363
  N         4.9958773706        8.9935903130       17.6580686871
  C         5.2433960000       10.3130493765       17.3713357929
  N        19.5996264657        6.7003444703        5.1653651559
  C        20.9173788621        6.4663688025        5.4663248822
  N         8.7703772225        6.7120369495       16.0252160133
  C        10.0887724942        6.4077254322       16.2571827922
  N         2.8903447851        6.8219766026       17.5360492691
  C         1.5807128127        6.5344736792       17.2489318333
  N        13.7424544938        6.5898438770        6.6986734552
  C        12.4260800623        6.3186470061        6.4276011000
  N         2.8837686812       16.0567170335        5.2163718617
  C         1.5630413931       16.2999527095        5.4880703764
  N        13.6563194848       16.0122809194       16.0433527193
  C        12.3448040754       16.3020717957       16.3259572235
  N        19.5402797718       15.9780528362       17.5378280789
  C        20.8554913836       16.2820369227       17.2914420472
  N         8.7250692605       16.0149326732        6.7737639487
  C        10.0467433611       16.2586018924        6.4937071362
  N         6.6069435908       17.6085372804        3.0929975578
  C         6.3324545078       17.3525445385        1.7737600850
  N         6.7207461072        6.9667271013       13.8607809509
  C         6.4639035408        6.6824110076       12.5414498503
  N         6.5537161831        5.2268251672       19.7248210426
  C         6.2718196186        5.4814111022       21.0404977512
  N         6.5750493347       16.0858100282        8.9552740077
  C         6.3076498453       16.3672759086       10.2725034046
  N        15.8703463554       17.5410359954       19.7199274989
  C        16.1405932302       17.2595777709       21.0352569138
  N        15.9032910893        6.6676547448        8.8420008222
  C        16.1759847807        6.4096880664       10.1617324912
  N        15.9165683587        5.1046436616        2.9774381080
  C        16.1817488605        5.3893740099        1.6625450434
  N        15.7889752146       15.9783642809       13.8556627429
  C        16.0631456736       16.2327970587       12.5348893686
 Zn        14.4886899850       14.7069148300       14.7380338281
 Br        13.1541652721       13.3988855471       13.4330219578
 Zn        14.6230685106        3.7957424140        3.8207077709
 Br        13.3127865130        2.4841535251        2.4997353292
 Zn         3.7394846137       14.7710251562        3.9198277356
 Br         2.4352024506       13.4530784758        2.5995726687
 Zn         3.8529686835        4.0571719788       14.6597957770
 Br         2.5654392576        2.7615044109       13.3012012238
 Zn         7.9580789130        8.1847581191       14.9190375520
 Br         9.5816288122        9.7694860275       14.6551982321
 Zn         7.8934261399       18.8991249977        3.9602796195
 Br         9.2243072616       20.1999045146        2.6499742985
 Zn        18.7336056964        7.9738850347        3.8521101511
 Br        20.0404808175        9.3061923142        2.5479273250
 Zn        18.6689766367       18.8107992847       14.6741051274
 Br        19.9894620702       20.1127294712       13.3538430274
 Zn         7.8354538230       14.7682212033        8.0840783489
 Br         9.1638512656       13.5035747775        9.4237678474
 Zn         7.8798681061        3.9462982289       18.8980943128
 Br         9.1636711797        2.6035560864       20.2114132815
 Zn        18.6797957125       14.6708436595       18.8226969902
 Br        20.0035584822       13.3548178883       20.1266674938
 Zn        18.7518220871        3.8266092579        7.9922531368
 Br        20.0732333405        2.5141686771        9.3031579167
 Zn        14.5893266503        7.9162787296        7.9624584139
 Br        13.3015186421        9.2225950554        9.3086725040
 Zn        14.5914887357       18.8544563866       18.8747030177
 Br        13.3049704262       20.1854682095       20.2007825911
 Zn         3.6932376863        8.0862669632       18.8931492756
 Br         2.3517274405        9.3578563212       20.2198720856
 Zn         3.7140218153       18.9095439313        8.0676094145
 Br         2.3957686439       20.2369947589        9.3676243685
 Zn        14.5484205577       14.6155766989        8.0127179967
 Br        13.2373581202       13.2930121285        9.3260503836
 Zn        14.6043209505        3.8530341193       18.8249616396
 Br        13.2830887197        2.5479609543       20.1416695799
 Zn         3.6994360629       14.8273069088       18.9360426880
 Br         2.3869830903       13.5136488768       20.2529621944
 Zn         3.8428917174        4.0205532101        8.1115624381
 Br         2.5451228272        2.7370734570        9.4706561660
 Zn         8.0044812748        8.0955742038        7.8428583189
 Br         9.6058861735        9.6665595307        8.2375495415
 Zn         7.8594593801       18.9569413934       18.9040155503
 Br         9.1891075874       20.2579921774       20.2176202806
 Zn        18.7116280127        8.0205176539       18.8054999726
 Br        20.0093627268        9.3520618951       20.1187279050
 Zn        18.6694598793       18.7794873883        8.0587557171
 Br        19.9806013657       20.0964476174        9.3753711345
 Zn        14.5901395686        7.9550640612       14.6663539811
 Br        13.3052875983        9.2658938527       13.3275654310
 Zn        14.5601564172       18.7797025264        3.8957106704
 Br        13.2529781856       20.1044674609        2.5843770098
 Zn         3.7274397874        8.0703599015        3.8908920622
 Br         2.3905554744        9.3680475347        2.5840000132
 Zn         3.7052843811       18.9488607593       14.7692499017
 Br         2.3971762832       20.2763620632       13.4591338738
 Zn         7.8194147881       14.8139962316       14.7969354855
 Br         9.1348522942       13.5250806069       13.4651135788
 Zn         7.8422419139        3.8706220957        3.8395328528
 Br         9.0940029217        2.5160525388        2.5074670388
 Zn        18.7204192876       14.6616992261        3.8987940928
 Br        20.0462868422       13.3626457365        2.5799505975
 Zn        18.7584433942        3.8569540246       14.6810916331
 Br        20.0873851432        2.5395098324       13.3846630764
 Zn         5.8438188001        6.0692182870       16.8269989772
 Zn        16.6055114502       16.7591569635       16.7759450207
 Zn        16.6710382564        5.8821335160        5.9037058042
 Zn         5.7967597558       16.8335439827        6.0155457600
 Zn         5.8490245085        6.0115593236        5.9395164558
 Zn        16.6200291407       16.7071893252        5.9608034694
 Zn         5.7796779321       16.8883079296       16.8516473135
 Zn        16.6628177533        5.9314985687       16.7312990872
  N         3.6569892340        6.0709201493       16.7516206252
  N        14.4879368220        5.8360705139        5.8980526310
  N        18.7890658281       16.7361372400       16.7445257779
  N         7.9877158257       16.8250128985        6.0213036787
  N        18.8573037429        5.9070879029        5.9313966569
  N         8.0278861885        5.9971323358       16.8598883996
  N         3.6174357370       16.8413293289        5.9985305736
  N        14.4204104653       16.7852217615       16.8098643583
  N        16.6971154033        3.7026367472        5.9012101278
  N        16.5783548241       14.5687639997       16.7781382459
  N        16.6329258344       18.9430810033       16.7731759255
  N        16.6416768789        8.0707341725        5.8966982986
  N         5.7976309251       19.0195392302        6.0136820118
  N         5.7762832957        8.2497521952       16.8801968565
  N         5.8569122243        3.8819125694       16.7558534644
  N         5.7691530975       14.6486006666        6.0268519989
  N         5.8257866267       16.8297015815        3.8351902349
  N         5.9380418437        6.1826269570       14.6082241673
  N        16.6379724276       16.7595595756       18.9663098004
  N        16.6713667630        5.8774595668        8.0993736048
  N         5.7798629226        6.0108797383       18.9812575015
  N         5.7906106278       16.8525181763        8.2041465052
  N        16.6891935593        5.8828678040        3.7286436132
  N        16.5741624022       16.7554032039       14.5958685213
  N         5.8225181466        3.8298790766        5.9893908730
  N         5.7453351706       14.7021979732       16.8565368449
  N        16.6212051117       18.8945104871        5.9733979793
  N        16.6260576079        8.1157310446       16.7447536196
  N         5.7826516482       19.0714935131       16.8352559372
  N         5.8229307753        8.1978040675        5.8964467346
  N        16.6793305722        3.7507996988       16.7463051141
  N        16.6399435352       14.5225969184        5.9607892421
  N         3.5953355948       16.9002523822       16.8593387230
  N        14.4379665697       16.6912507948        5.9480993659
  N        18.8096288983       16.7165237959        5.9837042801
  N         7.9684524663       16.8779841178       16.8590819702
  N        18.8476365798        5.9460185152       16.7345848466
  N         8.0362535102        5.9191106292        5.8722109302
  N         3.6655749240        6.0552199591        6.0343003614
  N        14.4770030752        5.8806672785       16.7235370082
  N        16.6632637132        5.9385831967       18.9213056162
  N        16.5997331501       16.7005634843        8.1467228904
  N        16.6399108574       16.7164734509        3.7780464314
  N        16.6874514678        5.9251693290       14.5502562408
  N         5.7728311370        5.9661753790        3.7806401924
  N         5.7760043614       16.8915389789       14.6571421939
  N         5.7841402964       16.8955566853       19.0287729759
  N         5.9699316075        6.0961941968        8.1500765037
  C        11.1712937195       15.7643245010       15.7931006292
  H        11.1518723578       14.9830325533       15.0237047836
  C        11.2521081157        4.8083940946        4.8228554472
  H        11.2441216880        4.0529005983        4.0282427113
  C         0.4173753779       15.7276571183        4.9300104669
  H         0.4404942055       14.9576776921        4.1493620234
  C         0.4547955950        4.9649043407       15.6629832113
  H         0.4719271256        4.1968889182       14.8805468242
  C        11.2485796542        6.8971497131       15.6510304625
  H        11.2516726716        7.6494915833       14.8558465393
  C        11.2233538061       17.8284683024        4.9447600193
  H        11.2315500028       18.6182848266        4.1838926309
  C         0.4341380828        7.0381268685        4.9334087914
  H         0.4313013511        7.8057835536        4.1498687113
  C         0.3638755782       17.8758643462       15.7425489535
  H         0.3555349945       18.6497317616       14.9654787438
  C        11.2026790826       15.6722562320        7.0169821701
  H        11.1950124259       14.8824438721        7.7778082479
  C        11.2555032955        4.8840290692       17.8579804136
  H        11.2586560757        4.1422285346       18.6653442530
  C         0.3803552006       15.7692060915       17.8662336953
  H         0.3894423365       14.9974988541       18.6455203639
  C         0.4470598273        4.9471697499        7.0718970360
  H         0.4491155630        4.1800146086        7.8554275455
  C        11.2734999017        6.8613403551        6.9929278793
  H        11.2861400051        7.6270077847        7.7757430951
  C        11.2182479575       17.8968892951       17.8888298576
  H        11.2379411008       18.6781670121       18.6582256805
  C         0.4090724332        7.0588105717       17.7984618860
  H         0.3914655756        7.8268681354       18.5815043030
  C         0.3704733609       17.8283585589        7.0594188817
  H         0.3483303366       18.5998129397        7.8386474313
  C        15.5128538499       11.3398879259       15.7268938404
  H        14.7247217681       11.3398095757       14.9642773348
  C        15.6108329893        0.4794318717        4.8735143182
  H        14.8380741265        0.4804710986        4.0951887691
  C         4.7309213877       11.4353898406        4.9122191384
  H         3.9670034349       11.4470763331        4.1257742041
  C         4.7727238033        0.6542099622       15.7181203062
  H         4.0051356214        0.6481955391       14.9350429318
  C        15.5708262609       11.2864644509        6.9753774082
  H        14.7896391987       11.2796153931        7.7451569694
  C        15.6018677555        0.5395273544       17.8169484364
  H        14.8295576152        0.5510868462       18.5957286306
  C         4.6937276708       11.4739024468       17.9235939913
  H         3.9306961016       11.4724116688       18.7109767466
  C         4.7533999210        0.6119650597        7.0727543742
  H         3.9867623839        0.6135838786        7.8568732912
  C         6.7688285686       11.4798284810       15.7748996941
  H         7.5445272882       11.4870324112       15.0020509875
  C         6.8384462232        0.5971428735        4.9284921216
  H         7.6016806317        0.5950459081        4.1407125275
  C        17.7041369159       11.3073422477        4.8795505335
  H        18.4860621936       11.3141393123        4.1105639222
  C        17.7046359241        0.5148851159       15.6886449916
  H        18.4746797080        0.5035625605       14.9079052840
  C         6.8088721138       11.4120347921        7.0585344839
  H         7.5851480612       11.4042989925        7.8310148424
  C         6.8600424717        0.6583474855       17.8598445215
  H         7.6247423375        0.6645800170       18.6462528198
  C        17.6643361707       11.3441140875       17.8033187763
  H        18.4531270114       11.3444584956       18.5652898775
  C        17.7154895998        0.4783344019        6.9995016858
  H        18.4860820259        0.4768022094        7.7798154477
  C        15.5146428981       15.6757122472       11.3761360491
  H        14.7335253677       14.9059876564       11.3806439516
  C        15.6322631512        4.8456362820        0.5002817251
  H        14.8627035019        4.0642907566        0.4950730281
  C         4.7506233651       15.8085518102        0.6077045404
  H         3.9707494519       15.0374124652        0.6042941786
  C         4.9085097701        5.0982341305       11.3881214004
  H         4.1323338248        4.3223065741       11.3970824109
  C         6.8582232370       15.8306973827       11.4393951275
  H         7.6385991861       15.0601099132       11.4483631547
  C         6.8171122716        4.9176191115        0.5544114477
  H         7.5903866050        4.1396995666        0.5496002175
  C        17.6981079942       15.6777080113        0.5448155862
  H        18.4702407324       14.8988750355        0.5382643081
  C        17.7323933371        4.8417328930       11.3305818725
  H        18.5015368534        4.0601296594       11.3344822571
  C        15.6357071112        6.9746980580       11.3198562928
  H        14.8670808349        7.7571112900       11.3152991728
  C        15.5933428789       17.8022939812        0.5599990905
  H        14.8220914223       18.5820465113        0.5665012033
  C         4.7039396137        7.0391632897        0.5668394139
  H         3.9305550044        7.8169309415        0.5718169211
  C         4.7330999515       17.9342607965       11.4213941094
  H         3.9547785165       18.7067665502       11.4135469396
  C         7.0171601007        7.2093198130       11.3693271937
  H         7.7904504345        7.9830804783       11.3590048461
  C         6.8788441171       17.9120718385        0.6158071638
  H         7.6590878360       18.6828291361        0.6201805260
  C        17.7282039876        6.9811670716        0.5104526974
  H        18.4952553729        7.7651056363        0.5150586357
  C        17.6448539543       17.7759717153       11.3666387985
  H        18.4265770591       18.5454515786       11.3623360878
 Xe        10.5867806985       10.8080394867       11.4232826137
