     409
 i =      56, E =    -5133.8730839702
  N         2.8973075851        5.2449974675       15.9936993143
  C         1.5758633123        5.5014248307       16.2547332172
  N        13.7042512767        5.1149156694        5.1345520078
  C        12.3879049382        5.3929081955        5.4085601811
  N        19.5552671251       17.5414849828       15.9957797910
  C        20.8733590575       17.2965351455       16.2839783315
  N         8.7504807566       17.5965772691        5.2353981902
  C        10.0662574966       17.2999525155        5.4871644884
  N        19.5743582907        5.1536176388        6.7201232328
  C        20.8900966761        5.4522310706        6.4731775675
  N         8.7460716686        5.2416303967       17.5990833175
  C        10.0634276684        5.4835884327       17.3028056331
  N         2.8684091881       17.5827872813        6.7770779668
  C         1.5546735445       17.2971540466        6.5032633544
  N        13.7000533855       17.5813347748       17.5988719694
  C        12.3784416006       17.3240665701       17.3351468914
  N        15.8745204136        2.9746395284        5.1419053500
  C        16.1426828884        1.6582028680        5.4195911013
  N        15.8286934162       13.8350964355       16.0250957785
  C        16.1009629788       12.5146114800       16.2847983952
  N        15.8696061946       19.7003943433       17.5638198896
  C        16.1345690959       21.0158638622       17.2825887855
  N        15.8679957444        8.8353465085        6.6882431460
  C        16.1375982676       10.1553704592        6.4269058285
  N         6.5758188931       19.7449952834        5.2203930629
  C         6.2961083831       21.0623701312        5.4793706553
  N         6.5745893374        8.9633320031       16.0621823184
  C         6.3022267821       10.2814545880       16.3331799907
  N         6.5972895610        3.1026558199       17.5723823641
  C         6.3230162824        1.7852822633       17.3104372253
  N         6.5706702817       13.8774252180        6.7902890991
  C         6.3120702709       12.5588565864        6.5072301226
  N         5.0443335461       16.0372341726        3.0785171024
  C         5.3117406170       16.3175172533        1.7631081864
  N         5.0559404390        5.2644453988       13.8609491890
  C         5.3302808853        5.5305978273       12.5439011723
  N        17.4231872054       15.9805346815       19.7095331463
  C        17.1544011448       16.2438746370       21.0289423048
  N        17.4251538223        5.1144285444        8.8629136722
  C        17.1597023250        5.3929258031       10.1798572999
  N         4.9978349001        6.7734794730       19.7292643824
  C         5.2604572440        6.4945373439       21.0459722900
  N         5.0176908427       17.6197787766        8.9382037918
  C         5.2906754941       17.3588239869       10.2572130066
  N        17.4294958955        6.6802316750        2.9947586437
  C        17.1572241655        6.4159169461        1.6772407769
  N        17.3937436059       17.5402454951       13.8506188784
  C        17.1209652426       17.2644770756       12.5349868855
  N         5.0113700459        3.0657903413        6.7531902908
  C         5.2761515046        1.7462576430        6.4854991983
  N         5.0107953824       13.9184468455       17.6249602932
  C         5.2819626498       12.6011420462       17.3526446089
  N        17.4138360248       19.6659660994        6.7359385147
  C        17.1502451531       20.9820786501        6.4544561898
  N        17.4131120755        8.8741386211       17.5428034228
  C        17.1332687046       10.1908224814       17.2797403039
  N         5.0251509738       19.7850126420       16.0535846519
  C         5.3007797298       21.1028332434       16.3133708314
  N         5.0448492286        8.9267601341        5.1747195908
  C         5.3107832001       10.2419941846        5.4607259477
  N        17.4215530312        3.0075888769       15.9849097267
  C        17.1476093579        1.6910175451       16.2548782028
  N        17.4350890457       13.8003266206        5.1677004521
  C        17.1595589082       12.4817300948        5.4279724477
  N         2.8747304418       16.0780495683       17.6192076638
  C         1.5569631143       16.3273652792       17.3331391432
  N        13.7034020352       15.9464602190        6.7165813905
  C        12.3846247426       16.2336433886        6.4631689938
  N        19.5762333834       15.9697106965        5.1945837293
  C        20.8898187565       16.2523872041        5.4724165024
  N         8.7208707601       16.0757561665       16.0680851713
  C        10.0421774888       16.3325330198       16.3331936575
  N        19.5616034896        6.7313601314       17.5332231033
  C        20.8813761361        6.4815993075       17.2618118030
  N         8.7610040567        6.7171120257        6.7009999988
  C        10.0761775657        6.4312534964        6.4309826053
  N         2.8800899524        6.7929066267        5.2230086916
  C         1.5645525804        6.5089013871        5.4859912110
  N        13.7085320659        6.6918692052       15.9572341849
  C        12.3883649706        6.4428226091       16.2400898998
  N        15.8613001475        5.1537144270       19.6776020469
  C        16.1361997572        5.4146201804       20.9952166199
  N        15.8485389039       15.9670952337        8.8933283292
  C        16.1081441512       16.2420482270       10.2136430568
  N        15.8660015488       17.5129507111        3.0320522916
  C        16.1386563780       17.2487072359        1.7143014786
  N        15.8961769244        6.7075935735       13.8178146218
  C        16.1595920567        6.4295555836       12.4996261976
  N         6.5463542827        5.1942776781        3.0358515043
  C         6.2723254986        5.4672330532        1.7209707978
  N         6.5673057570       16.0889777175       13.9045850936
  C         6.3026175366       16.3554009969       12.5847901238
  N         6.5839459659       17.6346530262       19.7699396553
  C         6.3201252608       17.3542724797       21.0871676862
  N         6.6234135317        6.7740465111        8.8926593651
  C         6.3522326254        6.5231020802       10.2150910641
  N        19.5548167288       17.5207146315        6.7557902975
  C        20.8752367804       17.2649048374        6.4912410777
  N         8.7401413987       17.6358135970       17.6185659865
  C        10.0553406208       17.3512540695       17.3458624329
  N         2.8876396802        5.2423022204        6.7833334062
  C         1.5692315087        5.4962800072        6.5045692326
  N        13.7009873741        5.1595026787       17.5344719885
  C        12.3846584357        5.4424676755       17.2707762356
  N         2.8689501855       17.6329638485       16.0616032529
  C         1.5528191725       17.3423002497       16.3166750868
  N        13.7052543138       17.5193946110        5.1795713230
  C        12.3874675301       17.2616831164        5.4599296004
  N        19.5813923548        5.1727116744       15.9807560252
  C        20.8955938486        5.4648115074       16.2474834513
  N         8.7423759760        5.1664323427        5.1426384750
  C        10.0641829770        5.4185021736        5.4123867030
  N         6.5798536426       19.7891460522       17.6110242817
  C         6.3148415910       21.1057600537       17.3308148925
  N         6.6085970785        8.9142105717        6.7214942742
  C         6.3300563009       10.2352610771        6.4731090479
  N         6.5567863634        3.0566358260        5.1874402263
  C         6.2865904153        1.7415664564        5.4647839900
  N         6.5593797641       13.9235089991       16.0638612062
  C         6.2943280480       12.6043079272       16.3339354959
  N        15.8586257955        3.0125646660       17.5331405358
  C        16.1296725578        1.6948033312       17.2681467034
  N        15.8808930495       13.7958777706        6.7236660041
  C        16.1446897285       12.4779514904        6.4447216527
  N        15.8637965789       19.6601078534        5.1758421687
  C        16.1373458290       20.9781850292        5.4365372569
  N        15.8494847660        8.8706488697       15.9962815598
  C        16.1100863588       10.1904352089       16.2714822552
  N        17.4161101344        6.7101073058       19.6823102271
  C        17.1511043976        6.4308311810       20.9982805211
  N        17.4055063956       17.5200426012        8.8977613449
  C        17.1271372681       17.2544103503       10.2141864065
  N         4.9944323931        6.7532392606        3.0434535979
  C         5.2582326233        6.4842016383        1.7250435808
  N         5.0122807036       17.6437571497       13.8962864407
  C         5.2867650751       17.3708346600       12.5796227046
  N        17.4252507940       15.9598937210        3.0276287120
  C        17.1545974239       16.2331623054        1.7104808073
  N        17.4395841526        5.1404143617       13.8210610454
  C        17.1675307887        5.4058776715       12.5023690140
  N         5.0275405308       16.0792345811       19.7662967687
  C         5.3037494043       16.3392415048       21.0838384193
  N         5.0644005729        5.2231088767        8.9091280701
  C         5.3352381257        5.5085518157       10.2233619156
  N        17.4150651738       19.6927817915       15.9989627969
  C        17.1457177282       21.0112557504       16.2627691138
  N        17.4192227435        8.8440602293        5.1301685145
  C        17.1512904866       10.1601726420        5.4093579062
  N         5.0495720524        3.0988717388       16.0103489095
  C         5.3115820415        1.7822747385       16.2910496115
  N         5.0241667633       13.8808777762        5.2272264434
  C         5.2995444032       12.5630033872        5.4883871389
  N        17.4320673311        2.9801198370        6.6971692970
  C        17.1583446173        1.6619718907        6.4355140980
  N        17.4037232939       13.8285914582       17.5598609071
  C        17.1287219432       12.5120914422       17.2884815635
  N         5.0146640605       19.7478407342        6.7710459752
  C         5.2794885587       21.0650325794        6.4941283845
  N         5.0173532597        8.9590620782       17.6158636288
  C         5.2862773812       10.2781780880       17.3489802831
  N        19.5688137678        6.7068481719        5.1613416158
  C        20.8860127594        6.4657466611        5.4553680420
  N         8.7460949807        6.7776086971       16.0252820230
  C        10.0649026754        6.4856308913       16.2735430881
  N         2.8727174281        6.7990231161       17.5508155117
  C         1.5600000567        6.5163315551       17.2709766963
  N        13.7187498107        6.6639627010        6.6958553064
  C        12.3982017546        6.4046998914        6.4281825628
  N         2.8891313068       16.0312665673        5.2178798446
  C         1.5690087658       16.2842708020        5.4851822053
  N        13.6793699546       16.0221640273       16.0472723740
  C        12.3644457001       16.3056259787       16.3219863732
  N        19.5617314880       15.9865875516       17.5507780575
  C        20.8776532778       16.2812961572       17.2997398907
  N         8.7400358968       16.0233247872        6.7714988941
  C        10.0607761707       16.2717166666        6.4902531872
  N         6.6020373957       17.5908496357        3.0865435620
  C         6.3285431068       17.3317844456        1.7679183024
  N         6.6009102777        6.8292805123       13.8607747332
  C         6.3418141571        6.5506030970       12.5408542978
  N         6.5603840440        5.2250115900       19.7269249144
  C         6.2787290932        5.4816700741       21.0435297002
  N         6.5750171066       16.0663456582        8.9439174889
  C         6.3074657151       16.3438812362       10.2618510056
  N        15.8762661796       17.5451247317       19.7191574301
  C        16.1432931962       17.2639326311       21.0345035362
  N        15.8814388090        6.6796533319        8.8569516081
  C        16.1515336127        6.4159008123       10.1766407626
  N        15.8732616932        5.1247771334        2.9910952208
  C        16.1417565651        5.4000583875        1.6745254897
  N        15.8257477044       15.9969357100       13.8595296668
  C        16.0977195571       16.2559932754       12.5384967844
 Zn        14.5420223262       14.7281437253       14.7615561901
 Br        13.2097004875       13.4338238474       13.4608512829
 Zn        14.5758913243        3.8305449967        3.8447824596
 Br        13.2617786779        2.5151699234        2.5308206870
 Zn         3.7461650125       14.7420132214        3.9266623351
 Br         2.4393096963       13.4273220960        2.6055405918
 Zn         3.7729957233        3.9566279571       14.7087854811
 Br         2.4642799479        2.6465003925       13.3839423489
 Zn         7.8662895575        8.0993272853       14.7777654503
 Br         9.2201958064        9.4512201807       13.5629792986
 Zn         7.8916266768       18.8870061549        3.9474185255
 Br         9.2081928825       20.1963076448        2.6301447306
 Zn        18.7161983901        7.9830524790        3.8463774300
 Br        20.0295301770        9.2990142536        2.5333916513
 Zn        18.6975803592       18.8276589265       14.7019211885
 Br        20.0100156410       20.1338767249       13.3773478316
 Zn         7.8467510483       14.7679294599        8.0687706129
 Br         9.1551608689       13.4761678974        9.3966380054
 Zn         7.8807838970        3.9511735703       18.8809510803
 Br         9.1839286278        2.6272136945       20.1956688014
 Zn        18.7104874639       14.6858417133       18.8373123649
 Br        20.0252051169       13.3663912116       20.1465216478
 Zn        18.7216061268        3.8372141660        7.9973790028
 Br        20.0416659328        2.5223495531        9.3059105324
 Zn        14.5961054912        7.9527400244        7.9736817655
 Br        13.2863629518        9.2622212930        9.2872111389
 Zn        14.5932512107       18.8598423048       18.8807036849
 Br        13.3021540400       20.1867622213       20.2059116310
 Zn         3.7111284332        8.0749967820       18.8769768768
 Br         2.3842597517        9.3729364218       20.1954240224
 Zn         3.7190855885       18.8905186257        8.0629210463
 Br         2.3984976293       20.2135781991        9.3636470215
 Zn        14.5921235634       14.6690871488        8.0017253344
 Br        13.2861186847       13.3507632387        9.3038644059
 Zn        14.5587763932        3.8676951630       18.8233749909
 Br        13.2430907778        2.5594854151       20.1418826072
 Zn         3.7299313653       14.7848648946       18.9194295518
 Br         2.4115102768       13.4751948435       20.2344046953
 Zn         3.7483604595        3.9430142395        8.0645147051
 Br         2.4382958955        2.6389949573        9.3933481694
 Zn         7.9073535898        8.0216435911        7.9756521172
 Br         9.2552789705        9.3440642620        9.2324437095
 Zn         7.8765497283       18.9313429971       18.9067384890
 Br         9.1959449913       20.2422797348       20.2194024712
 Zn        18.7046683414        8.0125791540       18.8317785730
 Br        20.0105983416        9.3293686463       20.1517566675
 Zn        18.6943782843       18.8170733752        8.0456981812
 Br        20.0081049719       20.1322735817        9.3587241368
 Zn        14.6010041597        7.9801056087       14.6899884900
 Br        13.3075256552        9.2886249344       13.3636007035
 Zn        14.5661530840       18.8053062537        3.8882916558
 Br        13.2564831129       20.1241313889        2.5737786775
 Zn         3.7295041432        8.0679431972        3.9047724093
 Br         2.4086051558        9.3848135127        2.6001372348
 Zn         3.7240085871       18.9310436055       14.7671317894
 Br         2.4066284936       20.2477738130       13.4574662986
 Zn         7.8422740814       14.8004137323       14.7793559792
 Br         9.1507888336       13.4928977990       13.4636036635
 Zn         7.8431050252        3.8901560227        3.8714274196
 Br         9.1236388179        2.5572726524        2.5421093233
 Zn        18.7275681365       14.6743918641        3.8897416695
 Br        20.0512334175       13.3747558366        2.5695903671
 Zn        18.7276897384        3.8566225505       14.7020687905
 Br        20.0520258383        2.5377546424       13.4013879624
 Zn         5.8090143088        6.0319003209       16.8090451804
 Zn        16.6228776028       16.7690620483       16.7844496612
 Zn        16.6513872928        5.8981568531        5.9137714704
 Zn         5.8029273219       16.8217012639        6.0081617236
 Zn         5.8093533782        5.9910856952        5.9584939846
 Zn        16.6445997261       16.7283420318        5.9552841385
 Zn         5.7933260134       16.8666639039       16.8383596559
 Zn        16.6474167426        5.9378222760       16.7565645450
  N         3.6313729818        6.0278935668       16.7775263766
  N        14.4582906954        5.8852906639        5.9134573934
  N        18.8114325053       16.7513264703       16.7634916054
  N         7.9984663586       16.8222905684        6.0114046265
  N        18.8255331924        5.9148079844        5.9277675775
  N         7.9997112585        6.0230807200       16.8247520120
  N         3.6254025119       16.8150928854        5.9986443176
  N        14.4360994704       16.7948534992       16.8199884994
  N        16.6546135436        3.7234915749        5.9157562217
  N        16.6167538256       14.5785142014       16.7950962078
  N        16.6434119449       18.9496735242       16.7860671975
  N        16.6435389876        8.0925649823        5.9052012572
  N         5.7994096520       18.9999770413        6.0011122613
  N         5.7968033779        8.2151583397       16.8372470722
  N         5.8266027509        3.8478647088       16.7868407474
  N         5.7935277269       14.6261408387        6.0139886887
  N         5.8245225433       16.8090051315        3.8292866765
  N         5.8245492308        6.0496488409       14.6080190630
  N        16.6499780224       16.7676119748       18.9676187030
  N        16.6522665383        5.8934882808        8.1125977837
  N         5.7850288491        6.0059541154       18.9817787820
  N         5.7945040867       16.8383209002        8.1947349973
  N        16.6522383716        5.9000308342        3.7392505707
  N        16.6100169071       16.7727651212       14.6012775619
  N         5.7863826174        3.8079770189        5.9677213446
  N         5.7837473180       14.6683063681       16.8449321016
  N        16.6359997918       18.9157874323        5.9611285927
  N        16.6369676523        8.1257501817       16.7656650550
  N         5.7995209237       19.0409474578       16.8370172830
  N         5.8300722390        8.1742440296        5.9391881023
  N        16.6411456097        3.7567932793       16.7578816697
  N        16.6604881036       14.5444819326        5.9506023975
  N         3.6180442733       16.8657142505       16.8481429025
  N        14.4510988182       16.7256249972        5.9415993919
  N        18.8193448072       16.7389206932        5.9719855406
  N         7.9837464262       16.8626340700       16.8445965801
  N        18.8250315738        5.9412928276       16.7591934945
  N         8.0047366602        5.9510924611        5.9219814667
  N         3.6305033437        6.0240320863        6.0060059768
  N        14.4517411761        5.9179684038       16.7415073818
  N        16.6358407295        5.9368138565       18.9332990030
  N        16.6322703775       16.7406486385        8.1486631256
  N        16.6452632575       16.7341913980        3.7762068333
  N        16.6693412636        5.9273558461       14.5659654162
  N         5.7740272790        5.9733193974        3.7861584501
  N         5.7875391624       16.8675154646       14.6474320056
  N         5.8021996040       16.8618470861       19.0215100172
  N         5.8439354758        5.9902369226        8.1540596658
  C        11.1944757343       15.7680765632       15.7799357114
  H        11.1807854343       14.9909208049       15.0062813470
  C        11.2191954746        4.8574836646        4.8597116529
  H        11.2093221207        4.0847948873        4.0814490158
  C         0.4196650702       15.7195904455        4.9274460961
  H         0.4364304624       14.9468341235        4.1493429976
  C         0.4258010865        4.9346005075       15.6996603407
  H         0.4418350808        4.1593184405       14.9241559052
  C        11.2285847672        7.0032914678       15.6975094544
  H        11.2307995687        7.7684417985       14.9120298464
  C        11.2295811767       17.8364720678        4.9304701971
  H        11.2337708159       18.6213549898        4.1644549254
  C         0.4023445882        7.0384643151        4.9215716909
  H         0.3980167660        7.8125625858        4.1446200727
  C         0.3900488131       17.8701992979       15.7510408948
  H         0.3851788076       18.6465048774       14.9762820725
  C        11.2199702979       15.6952982367        7.0179969682
  H        11.2157692565       14.9103720284        7.7838090891
  C        11.2221862274        4.9203849258       17.8430300242
  H        11.2196963859        4.1564448440       18.6299443562
  C         0.4000984322       15.7557751070       17.8677804449
  H         0.4046848704       14.9819867108       18.6450057378
  C         0.4124681239        4.9279897809        7.0428949468
  H         0.4168375856        4.1549916458        7.8209484061
  C        11.2440060953        6.9644997363        6.9814495870
  H        11.2539739378        7.7379945201        7.7587366670
  C        11.2256438130       17.8885069155       17.8884604352
  H        11.2390101394       18.6661296285       18.6616975512
  C         0.3905171088        7.0504942293       17.8151130620
  H         0.3744534142        7.8254472796       18.5911409533
  C         0.3849022605       17.8293628072        7.0490720140
  H         0.3687809009       18.6036031742        7.8257281584
  C        15.5496240987       11.3534387517       15.7349387499
  H        14.7669147716       11.3544758727       14.9667194326
  C        15.5907907752        0.4954910536        4.8772808882
  H        14.8154838794        0.4906700076        4.1015559035
  C         4.7551999037       11.4062904890        4.9257166868
  H         3.9793776042       11.4125309067        4.1506072759
  C         4.7570347857        0.6200099801       15.7508783494
  H         3.9824655389        0.6157633615       14.9743395617
  C        15.5919267524       11.3141351234        6.9858756952
  H        14.8176188291       11.3103682788        7.7625386350
  C        15.5816435804        0.5376141253       17.8252378499
  H        14.8067830882        0.5404861572       18.6014547852
  C         4.7356893562       11.4377915084       17.9013581837
  H         3.9612259694       11.4351642810       18.6778904152
  C         4.7278127844        0.5870333232        7.0397943462
  H         3.9537334373        0.5884326284        7.8167516976
  C         6.8468125386       11.4450111632       15.7835628811
  H         7.6221157142       11.4475638159       15.0080220576
  C         6.8382872962        0.5806229537        4.9192159559
  H         7.6104155471        0.5793609322        4.1402977988
  C        17.7038503927       11.3233841421        4.8679625991
  H        18.4784990527       11.3267025185        4.0916472967
  C        17.6950755852        0.5288345706       15.7068671316
  H        18.4688573423        0.5254501101       14.9295934756
  C         6.8702741892       11.3934293639        7.0400538566
  H         7.6465812972       11.3868193105        7.8146378337
  C         6.8668803772        0.6282674600       17.8727294672
  H         7.6390349956        0.6337545961       18.6515579826
  C        17.6850968081       11.3505594047       17.8286255679
  H        18.4681972494       11.3491235800       18.5963717408
  C        17.7035565234        0.5044901125        6.9957151416
  H        18.4772223766        0.5082374180        7.7730888845
  C        15.5496508813       15.7033440269       11.3767843088
  H        14.7693876694       14.9327069108       11.3776876877
  C        15.5895686063        4.8563424290        0.5128356660
  H        14.8142889644        4.0805553769        0.5092553381
  C         4.7570595973       15.7790853548        0.6003637954
  H         3.9799709326       15.0051140497        0.5956946359
  C         4.7838478181        4.9703260572       11.3875479899
  H         4.0085962607        4.1946285098       11.3938249405
  C         6.8556994752       15.8014662625       11.4270453431
  H         7.6315901872       15.0264248973       11.4331619783
  C         6.8239527501        4.9221691257        0.5603419684
  H         7.5986044440        4.1457725201        0.5577620663
  C        17.7025457460       15.6869625918        0.5470796839
  H        18.4759967711       14.9094337894        0.5430288952
  C        17.7086651325        4.8456096361       11.3423809446
  H        18.4785004360        4.0645251438       11.3438022439
  C        15.6103684641        6.9763630530       11.3367124870
  H        14.8406212797        7.7575032707       11.3348338668
  C        15.5920730880       17.8071283691        0.5568820198
  H        14.8186136205       18.5847422490        0.5603785376
  C         4.7069504464        7.0380087156        0.5674279341
  H         3.9315107909        7.8137086068        0.5701236645
  C         4.7400014137       17.9150606811       11.4147932040
  H         3.9643452755       18.6903735219       11.4091597800
  C         6.8957862165        7.0873074569       11.3740778836
  H         7.6708712649        7.8630484904       11.3666065587
  C         6.8748401558       17.8924074605        0.6106888768
  H         7.6507852848       18.6674615811        0.6164672497
  C        17.7042872313        6.9736408635        0.5197961059
  H        18.4785362145        7.7504363502        0.5228285025
  C        17.6763484776       17.8057842346       11.3736204056
  H        18.4567817105       18.5763141494       11.3723290369
 Xe        11.2157928311       11.3680119595       11.3765492455
