     409
 i =      56, E =    -5133.8791728441
  N         2.7400062969        5.2369842482       16.0339074477
  C         1.4200206589        5.4982506036       16.2991516090
  N        13.5346970633        5.1951725023        5.2110710466
  C        12.2184433833        5.4739404979        5.4804888353
  N        19.4639846991       17.5705816113       16.0228236662
  C        20.7825178079       17.3127651930       16.3000582025
  N         8.6344248682       17.6073728870        5.2242234159
  C         9.9510441553       17.3239928251        5.4871119053
  N        19.4047764034        5.1906547928        6.7606542880
  C        20.7210293368        5.4773431081        6.5006380725
  N         8.5962913174        5.2326640861       17.5948438246
  C         9.9144355087        5.4917979771       17.3174678701
  N         2.7615840645       17.6074193995        6.7690294583
  C         1.4452765503       17.3320974221        6.4965661070
  N        13.6108774395       17.5630497108       17.5848022045
  C        12.2915607484       17.3040929548       17.3140620470
  N        15.6867515267        3.0290466935        5.2093720587
  C        15.9658295450        1.7120080045        5.4762848399
  N        15.7524721425       13.8558283657       16.0208115783
  C        16.0154966001       12.5371785884       16.2922801326
  N        15.7559848763       19.7098960483       17.5805141017
  C        16.0100317800       21.0292344062       17.3043857754
  N        15.7072600109        8.8989492780        6.7589661637
  C        15.9877715006       10.2150180898        6.4919690589
  N         6.4731479487       19.7712557018        5.2266576221
  C         6.1872664969       21.0874764889        5.4899198551
  N         6.4513321378        8.9413662909       16.0343176466
  C         6.1902355341       10.2607857140       16.3047397732
  N         6.4437593084        3.0860788712       17.6055752507
  C         6.1847882539        1.7668144726       17.3332780530
  N         6.4675821595       13.8998945680        6.7689427325
  C         6.1909639105       12.5831830857        6.5002099296
  N         4.9295799117       16.0681427383        3.0620056191
  C         5.2043733085       16.3383420970        1.7456562748
  N         4.8888502638        5.2307071968       13.8856523466
  C         5.1533613070        5.5029842800       12.5672525262
  N        17.3199509799       15.9961480444       19.7347391562
  C        17.0469766300       16.2634206588       21.0527111290
  N        17.2542457504        5.1899145776        8.9116934101
  C        16.9884191213        5.4618055745       10.2295174862
  N         4.8758464701        6.8032751298       19.7439287853
  C         5.1412024857        6.5334433413       21.0630784600
  N         4.9193927229       17.6078919052        8.9289210592
  C         5.1952354693       17.3413450842       10.2462702240
  N        17.2415839205        6.7321332626        3.0495156950
  C        16.9720144087        6.4617594635        1.7321944476
  N        17.3128119855       17.5608833561       13.8683759216
  C        17.0404181529       17.2902475802       12.5512451351
  N         4.8659742261        3.0795285530        6.7665320845
  C         5.1452321516        1.7629545918        6.4980443822
  N         4.9329376007       13.9069959208       17.5937610434
  C         5.1932088037       12.5881410528       17.3216606222
  N        17.2811194451       19.7201697198        6.7555218148
  C        17.0006916706       21.0359833971        6.4872538324
  N        17.2703076694        8.8915121809       17.5868107012
  C        17.0123037318       10.2106637651       17.3126257211
  N         4.9341318881       19.7602372117       16.0390434992
  C         5.1927420735       21.0792381991       16.3129832517
  N         4.8804820264        8.9495836411        5.2229680251
  C         5.1601461619       10.2661060425        5.4893834138
  N        17.2616319067        3.0366881727       16.0141040374
  C        16.9997993345        1.7174459284       16.2837810945
  N        17.3015080233       13.8484908438        5.2151236693
  C        17.0221758809       12.5315132357        5.4814580809
  N         2.7857322777       16.0591390117       17.6008417847
  C         1.4672873825       16.3194778249       17.3267732055
  N        13.5845201454       16.0066838219        6.7601856929
  C        12.2678214848       16.2858057496        6.4936872167
  N        19.4551591421       16.0165491708        5.2127571218
  C        20.7709533627       16.2987794916        5.4801478744
  N         8.6441333592       16.0469874634       16.0317454235
  C         9.9633736300       16.3087066616       16.3003489870
  N        19.4102617852        6.7409870937       17.5842393549
  C        20.7297168249        6.4870292434       17.3111102958
  N         8.5865886786        6.7796880567        6.7682868980
  C         9.9029044288        6.5035582390        6.4971525327
  N         2.7132971222        6.8023419776        5.2312574486
  C         1.3967340296        6.5216766995        5.4973045504
  N        13.5580260805        6.7523376203       16.0183173975
  C        12.2390541377        6.4898741906       16.2913636076
  N        15.6953594068        5.1764636644       19.7303746581
  C        15.9604689214        5.4468679956       21.0492728160
  N        15.7403483897       16.0092742520        8.9156253943
  C        16.0161299812       16.2766312994       10.2325465767
  N        15.7493392621       17.5470384523        3.0481207185
  C        16.0243150955       17.2770265705        1.7317612579
  N        15.7145753186        6.7509139161       13.8702634697
  C        15.9812853432        6.4803659083       12.5521831130
  N         6.4165268234        5.2461101377        3.0641073404
  C         6.1487656089        5.5178542950        1.7468628560
  N         6.4894648430       16.0555398342       13.8823506904
  C         6.2176412981       16.3268469862       12.5653354914
  N         6.5023864235       17.6150099302       19.7476331803
  C         6.2287629747       17.3487812145       21.0658779710
  N         6.4339997094        6.7866842245        8.9258381112
  C         6.1644573528        6.5184757387       10.2439684773
  N        19.4441154803       17.5766844401        6.7641927122
  C        20.7637902374       17.3159869297        6.4943732040
  N         8.6542413890       17.6036476729       17.5869317545
  C         9.9703914342       17.3243842858       17.3161484950
  N         2.7200022508        5.2435598312        6.7838666447
  C         1.4014622340        5.5048169085        6.5118130737
  N        13.5519216627        5.1933899048       17.5714758557
  C        12.2353632504        5.4733209467       17.3063078848
  N         2.7801837646       17.6113891360       16.0436021287
  C         1.4634243188       17.3338688886       16.3102327523
  N        13.5902028397       17.5574354211        5.1996465409
  C        12.2718851645       17.2996164758        5.4762425257
  N        19.4231305477        5.1896359222       16.0242486039
  C        20.7387622859        5.4729998253       16.2938621179
  N         8.5778014580        5.2278118295        5.2096543811
  C         9.8970145304        5.4894580526        5.4800941710
  N         6.4947634772       19.7683304724       17.5904861403
  C         6.2107344505       21.0850556305       17.3265432747
  N         6.4398381469        8.9424502497        6.7751555933
  C         6.1772709791       10.2615677903        6.5036623605
  N         6.4199644177        3.0875942857        5.2087731854
  C         6.1604649872        1.7687743648        5.4819317136
  N         6.4864771929       13.8988546119       16.0355701663
  C         6.2079415574       12.5824562733       16.3050718700
  N        15.7031668906        3.0271630235       17.5683796936
  C        15.9836617924        1.7108425207       17.2992479336
  N        15.7414829624       13.8543538102        6.7672640882
  C        16.0051047995       12.5359123199        6.4959121739
  N        15.7310227314       19.7102818333        5.1946918668
  C        15.9874116623       21.0299090088        5.4693645765
  N        15.7190361835        8.8998771868       16.0274001594
  C        15.9982867637       10.2160517288       16.2955136993
  N        17.2537154838        6.7294143215       19.7354403692
  C        16.9781509416        6.4604844328       21.0518544679
  N        17.2951873579       17.5657149410        8.9123057635
  C        17.0318859357       17.2921331332       10.2303378856
  N         4.8598624999        6.8009865602        3.0643861971
  C         5.1325505946        6.5329568945        1.7459366589
  N         4.9335846345       17.6109332524       13.8861171936
  C         5.2020627740       17.3425849213       12.5676858181
  N        17.3063703515       15.9926707823        3.0540014347
  C        17.0402351420       16.2615238925        1.7348173545
  N        17.2669934028        5.1923732655       13.8674457389
  C        16.9946431925        5.4624746275       12.5503053226
  N         4.9434192603       16.0622077631       19.7475395217
  C         5.2109388473       16.3351676511       21.0649030305
  N         4.8762599730        5.2326846886        8.9285138895
  C         5.1476170272        5.5038687545       10.2458178012
  N        17.3060676489       19.7199659116       16.0194257007
  C        17.0230241659       21.0360003607       16.2861661314
  N        17.2584731462        8.8906903752        5.1988963595
  C        17.0014277135       10.2098059474        5.4743910713
  N         4.8896297357        3.0769869214       16.0488659766
  C         5.1692546495        1.7606848447       16.3175686262
  N         4.9155200926       13.9059603077        5.2092783400
  C         5.1767414688       12.5873735412        5.4830789878
  N        17.2461054814        3.0355288210        6.7626674159
  C        16.9826134791        1.7169593631        6.4911197932
  N        17.3125091988       13.8490117131       17.5736104392
  C        17.0327725094       12.5322715652       17.3066305289
  N         4.9124902468       19.7616983665        6.7775620234
  C         5.1693575445       21.0811854436        6.5034591655
  N         4.8924008391        8.9507599554       17.5874991578
  C         5.1734079958       10.2669119185       17.3193860260
  N        19.3977011165        6.7427519215        5.2024787204
  C        20.7161685859        6.4916947664        5.4839148705
  N         8.6001017299        6.7827585665       16.0339704304
  C         9.9172650935        6.5049934320       16.2994213217
  N         2.7261910896        6.7975864021       17.5845333956
  C         1.4106658766        6.5158959744       17.3128342275
  N        13.5435009458        6.7534742364        6.7653818765
  C        12.2243226465        6.4903541067        6.4956458572
  N         2.7705799050       16.0575498535        5.2077375468
  C         1.4517327954       16.3189189716        5.4785233192
  N        13.6002983057       16.0117761216       16.0254560424
  C        12.2843957786       16.2904347354       16.2965900856
  N        19.4700300818       16.0123107640       17.5772674946
  C        20.7865526861       16.2962926684       17.3152202885
  N         8.6277856636       16.0465498590        6.7742988742
  C         9.9466563454       16.3061512480        6.5006141424
  N         6.4874437741       17.6222967227        3.0678417605
  C         6.2217180576       17.3524283316        1.7485695840
  N         6.4432889926        6.7867648613       13.8823222158
  C         6.1690657994        6.5185198749       12.5651668073
  N         6.4347455479        5.2493326966       19.7497192122
  C         6.1581776116        5.5188220262       21.0661410786
  N         6.4757258569       16.0530379404        8.9262482137
  C         6.2110226932       16.3257813079       10.2442964714
  N        15.7663511932       17.5530574943       19.7340454089
  C        16.0323626820       17.2799571785       21.0514472205
  N        15.7021220443        6.7494635496        8.9141068693
  C        15.9752701773        6.4800029341       10.2312313339
  N        15.6820055152        5.1806689400        3.0495557856
  C        15.9538178220        5.4486817436        1.7313420232
  N        15.7547622119       16.0071474160       13.8713647620
  C        16.0234494652       16.2758366389       12.5533464314
 Zn        14.4555402389       14.7185354149       14.7296910829
 Br        13.1358819404       13.4084441891       13.4168476457
 Zn        14.3898519990        3.8936215453        3.9198862584
 Br        13.0678726672        2.5810100752        2.6103942352
 Zn         3.6324172823       14.7720130530        3.9090961059
 Br         2.3172227640       13.4618222189        2.5919624208
 Zn         3.6032613123        3.9388105878       14.7531173329
 Br         2.2871234631        2.6238104379       13.4386563523
 Zn         7.7392338668        8.0730417724       14.7408722626
 Br         9.0577713920        9.3836497058       13.4253592867
 Zn         7.7783253579       18.9138835777        3.9429841828
 Br         9.0955579695       20.2261369126        2.6289264967
 Zn        18.5407125448        8.0215530300        3.8999770852
 Br        19.8550357257        9.3340391696        2.5830148401
 Zn        18.6020359011       18.8617050175       14.7257255340
 Br        19.9170168352       20.1734523381       13.4101132421
 Zn         7.7612613149       14.7577680765        8.0630307003
 Br         9.0711321042       13.4350028230        9.3751003497
 Zn         7.7321010812        3.9530301016       18.8949118495
 Br         9.0416405063        2.6391039178       20.2150922753
 Zn        18.6111484589       14.7099474259       18.8657703123
 Br        19.9259879110       13.3890357061       20.1736566969
 Zn        18.5463677684        3.8961221990        8.0519996167
 Br        19.8594695303        2.5790839098        9.3645240359
 Zn        14.4117508166        8.0477708760        8.0551156530
 Br        13.1050561342        9.3668612601        9.3717407153
 Zn        14.4755122213       18.8459469264       18.8801381567
 Br        13.1648759728       20.1638495139       20.1963641449
 Zn         3.5848923565        8.0975184350       18.8748970073
 Br         2.2731748728        9.4164256429       20.1868100807
 Zn         3.6218106694       18.8930816266        8.0665662520
 Br         2.3089351643       20.2081695170        9.3835583150
 Zn        14.4458156348       14.7169627800        8.0568799892
 Br        13.1276267037       13.4076890799        9.3724833561
 Zn        14.4029271406        3.8897957639       18.8594102126
 Br        13.0861518330        2.5735672948       20.1698864114
 Zn         3.6476875294       14.7696688453       18.8896383562
 Br         2.3328094474       13.4602191728       20.2092239025
 Zn         3.5796011379        3.9433807797        8.0659119218
 Br         2.2669949235        2.6296042991        9.3833581971
 Zn         7.7326770059        8.0713002255        8.0626113641
 Br         9.0530984660        9.3819730473        9.3759094164
 Zn         7.7938577413       18.9027063576       18.8777679861
 Br         9.1157348474       20.2159236966       20.1868205254
 Zn        18.5508354904        8.0210851657       18.8837057152
 Br        19.8651612604        9.3328984641       20.2018564932
 Zn        18.5736572342       18.8709204108        8.0527616175
 Br        19.8919853730       20.1842509645        9.3645693837
 Zn        14.4283382524        8.0485194014       14.7293096815
 Br        13.1145363503        9.3664483359       13.4176019566
 Zn        14.4500277457       18.8375172017        3.8975186750
 Br        13.1399568480       20.1537453367        2.5798673721
 Zn         3.5742048561        8.0972020184        3.9394342316
 Br         2.2609701912        9.4148139821        2.6266240189
 Zn         3.6372709168       18.8978251320       14.7505934404
 Br         2.3269765767       20.2161364116       13.4346916833
 Zn         7.7802753828       14.7596515904       14.7393085163
 Br         9.0851800447       13.4368068354       13.4235585924
 Zn         7.7081224970        3.9483702872        3.9116834577
 Br         9.0170599546        2.6299791876        2.5954310496
 Zn        18.6030827510       14.7109590106        3.9295268504
 Br        19.9147185128       13.3908422934        2.6168927614
 Zn        18.5595273272        3.8993280581       14.7260694012
 Br        19.8744636510        2.5855076646       13.4116612033
 Zn         5.6679190022        6.0139338843       16.8202345243
 Zn        16.5436381269       16.7780648052       16.8010617735
 Zn        16.4640078576        5.9587400559        5.9843229507
 Zn         5.6953705194       16.8325655977        5.9984561122
 Zn         5.6432880704        6.0129168168        5.9987439210
 Zn        16.5159537303       16.7780316656        5.9852673942
 Zn         5.7234371846       16.8319269463       16.8185364157
 Zn        16.4878596338        5.9579707962       16.8022429951
  N         3.4798924900        6.0217200600       16.8108076057
  N        14.2853603364        5.9701175502        5.9883404315
  N        18.7208461035       16.7843991831       16.7957374905
  N         7.8842621585       16.8328414023        6.0022187453
  N        18.6541125033        5.9575308902        5.9755033117
  N         7.8513732525        6.0125958348       16.8175662586
  N         3.5128449603       16.8358819896        5.9889460300
  N        14.3527258940       16.7825737838       16.8053065095
  N        16.4624501252        3.7786014637        5.9872364527
  N        16.5367153215       14.5986997620       16.7960349810
  N        16.5384692122       18.9679697274       16.8029756761
  N        16.4768639949        8.1478812788        5.9766910325
  N         5.7001532516       19.0198395720        6.0052660891
  N         5.6669317328        8.1994859871       16.8101930727
  N         5.6618116898        3.8284122943       16.8280676219
  N         5.6955353574       14.6496141831        5.9879672737
  N         5.7059876887       16.8448886755        3.8116411987
  N         5.6686567137        6.0076803797       14.6309913536
  N        16.5449512780       16.7762882403       18.9874076484
  N        16.4762958383        5.9688598190        8.1662452552
  N         5.6582503068        6.0263716569       19.0004814839
  N         5.6945199580       16.8286210160        8.1809023867
  N        16.4613478652        5.9570665604        3.7964262293
  N        16.5345879906       16.7845301925       14.6165728292
  N         5.6383901638        3.8302041063        5.9865455582
  N         5.7143788508       14.6495938463       16.8156273205
  N        16.5123799845       18.9682094563        5.9733222879
  N        16.4893607524        8.1485999565       16.8086498533
  N         5.7208034551       19.0178024539       16.8118323446
  N         5.6555802121        8.1993460953        6.0004165106
  N        16.4780789075        3.7782089842       16.7911597783
  N        16.5252674125       14.5978410032        5.9924163311
  N         3.5303610771       16.8393612665       16.8239429511
  N        14.3340732524       16.7767953557        5.9771768442
  N        18.7029603659       16.7908117404        5.9893950239
  N         7.9027903807       16.8294817189       16.8097716296
  N        18.6700227071        5.9579818608       16.8059248644
  N         7.8350447056        6.0074831845        5.9892368526
  N         3.4631744288        6.0271512001        6.0088676383
  N        14.3015800211        5.9682497096       16.7931086368
  N        16.4774402488        5.9525599556       18.9861534633
  N        16.5144602958       16.7892505901        8.1672352710
  N        16.5255051540       16.7703669264        3.7978159443
  N        16.4920830479        5.9716307258       14.6157647299
  N         5.6373607556        6.0222700244        3.8110775182
  N         5.7123812784       16.8323621528       14.6310827040
  N         5.7245285335       16.8367234152       19.0010067135
  N         5.6546927011        6.0088813053        8.1806309472
  C        11.1188808350       15.7503896303       15.7481005266
  H        11.1110842549       14.9754109604       14.9720616674
  C        11.0541860248        4.9322946212        4.9303824176
  H        11.0488615228        4.1569784187        4.1547088787
  C         0.2956059068       15.7600337666        4.9287090949
  H         0.3030361112       14.9853838717        4.1523392455
  C         0.2663082466        4.9368358788       15.7459802431
  H         0.2777940023        4.1618552046       14.9700363229
  C        11.0798510012        7.0464654083       15.7451352102
  H        11.0821571867        7.8214935464       14.9691657228
  C        11.1145270580       17.8615592695        4.9318841701
  H        11.1195275252       18.6372225759        4.1565004788
  C         0.2326425710        7.0581464639        4.9423054626
  H         0.2262904029        7.8344845180        4.1676094964
  C         0.3004989032       17.8741103632       15.7562386329
  H         0.2964999987       18.6505119230       14.9815503477
  C        11.1041739370       15.7459948898        7.0467026937
  H        11.0996702019       14.9703803043        7.8220983992
  C        11.0731651165        4.9330784643       17.8618643511
  H        11.0703929728        4.1581812821       18.6380325292
  C         0.3096235765       15.7593253030       17.8719557071
  H         0.3143861993       14.9850497529       18.6486628443
  C         0.2448571264        4.9428763647        7.0577252751
  H         0.2509204777        4.1683280301        7.8341680107
  C        11.0670611327        7.0464709381        7.0462609178
  H        11.0721657450        7.8216500231        7.8221275511
  C        11.1361046541       17.8636030136       17.8651611712
  H        11.1442756154       18.6385062074       18.6412323214
  C         0.2432702223        7.0522231882       17.8606867741
  H         0.2315161021        7.8283309558       18.6355890208
  C         0.2803140085       17.8741446523        7.0448191123
  H         0.2734475066       18.6497835025        7.8201985825
  C        15.4574068696       11.3797996743       15.7440079068
  H        14.6817151636       11.3846012763       14.9686542869
  C        15.4264154454        0.5475280331        4.9237484181
  H        14.6502053905        0.5417037313        4.1489511855
  C         4.6187272921       11.4291517580        4.9365811481
  H         3.8430075231       11.4327442656        4.1612626899
  C         4.6299951623        0.5956710915       15.7669971269
  H         3.8528649517        0.5885234064       14.9930768616
  C        15.4472969777       11.3785236879        7.0441576309
  H        14.6717761915       11.3832108401        7.8196331630
  C        15.4467785115        0.5451729730       17.8509834543
  H        14.6712901679        0.5369579581       18.6265064511
  C         4.6338060605       11.4315353218       17.8703590271
  H         3.8585961855       11.4379429930       18.6461955608
  C         4.6063153858        0.5977723314        7.0490203320
  H         3.8296371222        0.5907499841        7.8233505406
  C         6.7488265484       11.4176109617       15.7553834192
  H         7.5243329526       11.4115975458       14.9799199321
  C         6.7228765849        0.6123501152        4.9357609170
  H         7.4979500515        0.6197004844        4.1598146963
  C        17.5614796384       11.3674884166        4.9282306943
  H        18.3360966615       11.3624832607        4.1518506747
  C        17.5592678847        0.5614097101       15.7336903405
  H        18.3330695179        0.5691120915       14.9565172083
  C         6.7338120912       11.4199478012        7.0515634185
  H         7.5092938960       11.4165467652        7.8270918542
  C         6.7470757720        0.6102878228       17.8797450365
  H         7.5223533065        0.6179060024       18.6554283530
  C        17.5725329014       11.3680779435       17.8589284540
  H        18.3481945325       11.3626648402       18.6342269377
  C        17.5401294278        0.5597069971        7.0398888350
  H        18.3143861258        0.5649502840        7.8166624426
  C        15.4701455111       15.7262621130       11.3944283340
  H        14.6937929280       14.9515870110       11.3965810370
  C        15.4057054429        4.8997275829        0.5692145241
  H        14.6280548779        4.1263817596        0.5673458976
  C         4.6566324635       15.7885566121        0.5844741661
  H         3.8792112446       15.0149236879        0.5830946730
  C         4.5996503942        4.9548551809       11.4077132777
  H         3.8231940822        4.1803146454       11.4094538040
  C         6.7645171215       15.7769502640       11.4035311558
  H         7.5393594568       15.0007302191       11.4014987828
  C         6.7031421934        4.9687693687        0.5884021024
  H         7.4784365201        4.1929608744        0.5915869504
  C        17.5926092115       15.7120172569        0.5748589640
  H        18.3670887522       14.9355242618        0.5763114769
  C        17.5398640230        4.9108125988       11.3886773520
  H        18.3128212019        4.1327309080       11.3867361411
  C        15.4298200534        7.0313316311       11.3930001407
  H        14.6558286456        7.8083478549       11.3949047339
  C        15.4787038330       17.8284197176        0.5703936072
  H        14.7037471675       18.6045510221        0.5683863295
  C         4.5868013005        7.0821773808        0.5827247557
  H         3.8108271645        7.8571638010        0.5797990023
  C         4.6498042877       17.8925632954       11.4082695378
  H         3.8748181618       18.6685860823       11.4102036045
  C         6.7163803257        7.0684005682       11.4035192876
  H         7.4927388424        7.8431071311       11.4019825612
  C         6.7758239285       17.8992205303        0.5880439831
  H         7.5530401232       18.6730017847        0.5892505754
  C        17.5257097551        7.0099909870        0.5731494854
  H        18.3027644164        7.7840041110        0.5749090796
  C        17.5872503501       17.8397361581       11.3892644500
  H        18.3638234614       18.6142114548       11.3867302498
 Xe        20.1446301195       10.0356895319       10.0800592902
