     409
 i =      56, E =    -5133.8815799291
  N         2.7841127715        5.2176848992       15.9803154003
  C         1.4667041590        5.5009468973       16.2397070092
  N        13.5629664528        5.1450674354        5.1175614622
  C        12.2424306385        5.3978256033        5.3975080847
  N        19.5938741701       17.6051568696       16.0332493755
  C        20.9117798345       17.3288139627       16.2994915280
  N         8.7202190933       17.5440695659        5.2131026010
  C        10.0385240802       17.2695462204        5.4776516284
  N        19.4226757332        5.2199660302        6.7769097719
  C        20.7417332405        5.4878092954        6.5083106986
  N         8.6456411777        5.1863969633       17.5500445216
  C         9.9643163202        5.4428171166       17.2726286929
  N         2.8579528346       17.5408973845        6.7772465465
  C         1.5394258825       17.2794693813        6.5036342230
  N        13.7310719933       17.6174151349       17.6087462223
  C        12.4134610494       17.3431796561       17.3403329037
  N        15.7442827061        3.0174425638        5.1834745500
  C        16.0367538427        1.7055918689        5.4597065274
  N        15.8857066223       13.9041986094       16.0294047207
  C        16.1389504491       12.5842352334       16.2987791481
  N        15.8872654272       19.7607786715       17.5876305693
  C        16.1238123953       21.0787535343       17.2913770584
  N        15.7183009891        8.8945221629        6.7038384361
  C        16.0229417315       10.2109517523        6.4652037322
  N         6.5461019411       19.7026820577        5.2157985039
  C         6.2410763655       21.0167391449        5.4647561778
  N         6.5543645258        8.8994486597       15.9959520821
  C         6.3104188718       10.2209524546       16.2765324903
  N         6.4918533050        3.0606799193       17.5712132469
  C         6.2456494325        1.7395238673       17.3013774901
  N         6.5474648300       13.8188426039        6.7391226259
  C         6.2658418666       12.5046745325        6.4609123734
  N         5.0107864203       16.0110969718        3.0434289134
  C         5.2898287958       16.2873193302        1.7284932539
  N         4.9249258616        5.1763015693       13.8384492867
  C         5.1818209342        5.4460160521       12.5179071883
  N        17.4393868124       16.0388330672       19.7481536571
  C        17.1561021682       16.2938914984       21.0663481576
  N        17.2131658760        5.2391140686        8.8855440375
  C        16.9433224619        5.5236237083       10.1996475465
  N         4.9282769864        6.7733897362       19.6933381759
  C         5.1783707029        6.4923849879       21.0130001656
  N         5.0351759338       17.5319646749        8.9196350870
  C         5.3264966095       17.2736630404       10.2346498298
  N        17.3171538149        6.7054491000        3.0248128439
  C        17.0634988223        6.4329929576        1.7052975105
  N        17.4365442979       17.6031289656       13.8775833952
  C        17.1560401789       17.3301495275       12.5622661719
  N         4.8752740191        3.0039878721        6.7088334440
  C         5.1675913662        1.6876156061        6.4519248877
  N         5.0669297635       13.8704886982       17.5743231746
  C         5.3240318558       12.5517705724       17.2989636291
  N        17.3791834800       19.7288135718        6.7585834176
  C        17.0894003160       21.0427525444        6.4863333924
  N        17.3389941979        8.9272074825       17.6011359459
  C        17.1013265372       10.2487454023       17.3216631290
  N         5.0469668800       19.7188531004       16.0130712390
  C         5.2877656173       21.0406463072       16.2857618442
  N         4.9297110599        8.8844548969        5.1676594017
  C         5.2194152463       10.1982455845        5.4381624412
  N        17.3076794510        3.0905896474       15.9439652881
  C        17.0706525068        1.7686031789       16.2285045436
  N        17.3843750582       13.8446309824        5.2417995826
  C        17.0934703823       12.5279229367        5.4952105838
  N         2.9090832586       16.0198330737       17.5722528741
  C         1.5919592763       16.2985518260       17.3076197492
  N        13.6801886738       15.9861537373        6.7644412557
  C        12.3616469664       16.2481455586        6.4877644656
  N        19.5366935862       16.0061779004        5.2185319833
  C        20.8550573186       16.2753283358        5.4857000857
  N         8.7826623141       16.0347027327       16.0511337029
  C        10.0976339315       16.3131151590       16.3250767610
  N        19.4722622159        6.7881102959       17.5329549386
  C        20.7880883617        6.5208944812       17.2532618975
  N         8.6064809374        6.6608180320        6.7177403479
  C         9.9212424625        6.3898382133        6.4390259733
  N         2.7417095913        6.7553760404        5.1975847318
  C         1.4239812217        6.4941034588        5.4782984995
  N        13.6041551638        6.7472426549       16.0079342522
  C        12.2868309563        6.4546284644       16.2570529892
  N        15.7965724564        5.1711112093       19.6960459028
  C        16.0662511746        5.4273106571       21.0156459194
  N        15.8342297670       16.0328643171        8.9373236205
  C        16.1147120214       16.3083017636       10.2521129404
  N        15.8301837043       17.5396692798        3.0636910548
  C        16.1147228677       17.2825743429        1.7469791891
  N        15.6950040543        6.8525000047       13.8381565419
  C        15.9433389505        6.5655459941       12.5188922797
  N         6.4231417440        5.1677465510        3.0101594321
  C         6.1615033272        5.4500035844        1.6945913043
  N         6.6498076613       16.0156805094       13.8726836363
  C         6.3724836018       16.2779004778       12.5534224310
  N         6.6013707329       17.5896271710       19.7410433584
  C         6.3230296391       17.3151532100       21.0569562675
  N         6.4494807621        6.7152292153        8.8683294325
  C         6.1801165769        6.4549224522       10.1876264454
  N        19.5405252205       17.5658598436        6.7710319888
  C        20.8577669326       17.2907583762        6.5017853672
  N         8.7698419916       17.6015751645       17.5963946403
  C        10.0906544828       17.3355726575       17.3340536957
  N         2.7417520685        5.1978635027        6.7527880972
  C         1.4237965592        5.4796339507        6.4955418074
  N        13.6047471502        5.2113343507       17.5827489506
  C        12.2865648443        5.4573518484       17.2908385207
  N         2.9118415446       17.5693302118       16.0110026973
  C         1.5937090120       17.3112518555       16.2891663274
  N        13.6779528208       17.5550517860        5.2217664384
  C        12.3605533718       17.2753008335        5.4836091388
  N        19.4637925834        5.2511821260       15.9589315570
  C        20.7839034568        5.5138899506       16.2289531057
  N         8.5979170202        5.1270869884        5.1410891253
  C         9.9181175963        5.3877871367        5.4107419041
  N         6.5940033157       19.7461223045       17.5775011169
  C         6.2986962428       21.0590754288       17.3060885952
  N         6.4988158638        8.8610623390        6.7095017398
  C         6.2426011184       10.1828874986        6.4462501335
  N         6.4245612205        3.0131709711        5.1470424968
  C         6.1792761784        1.6951531708        5.4324382484
  N         6.6405494242       13.8615658992       16.0370738131
  C         6.3518398541       12.5443437491       16.2957502842
  N        15.7666845739        3.0706084643       17.5133073966
  C        16.0644781422        1.7576450713       17.2534726820
  N        15.8382341226       13.8490959641        6.8069090143
  C        16.0826423017       12.5310673973        6.5156732685
  N        15.8321791750       19.7037023189        5.1948377906
  C        16.0806545229       21.0251284706        5.4640785148
  N        15.7853905070        8.9505628350       16.0434441413
  C        16.0869030432       10.2641131183       16.3047159663
  N        17.3498323863        6.7286021781       19.7117958358
  C        17.0798308416        6.4446258113       21.0260785332
  N        17.3958103405       17.5831982760        8.9205340226
  C        17.1352390131       17.3192019263       10.2409833404
  N         4.8776651319        6.7335892199        3.0144502364
  C         5.1528968634        6.4726528566        1.6951958631
  N         5.0849471655       17.5625673727       13.8707486739
  C         5.3515719218       17.2883912753       12.5542222094
  N        17.3839013666       15.9834226679        3.0665241134
  C        17.1287002344       16.2654484254        1.7480114828
  N        17.2576146707        5.3021626635       13.8340874190
  C        16.9656428444        5.5561997845       12.5185276592
  N         5.0517377047       16.0274833465       19.7276397775
  C         5.3102365627       16.2965728730       21.0473275476
  N         4.9047849344        5.1490478578        8.8796027109
  C         5.1723010086        5.4315516854       10.1956931008
  N        17.4293814026       19.7688309107       16.0179756245
  C        17.1303655607       21.0858214967       16.2664584500
  N        17.2759828334        8.8901893215        5.1517116060
  C        17.0387304127       10.2078635794        5.4498336821
  N         4.9371703938        3.0349543518       16.0138603756
  C         5.2318737054        1.7214599222       16.2839839428
  N         4.9889475643       13.8416183799        5.1865594460
  C         5.2468176625       12.5199087118        5.4487311401
  N        17.2827738740        3.0484923742        6.7571695986
  C        17.0419704470        1.7250274975        6.4858753428
  N        17.4389830377       13.8857820776       17.5865153701
  C        17.1528218489       12.5705547980       17.3158093769
  N         4.9939359716       19.6879435027        6.7735102250
  C         5.2280750180       21.0073934022        6.4828141505
  N         4.9800051056        8.9173009871       17.5336561992
  C         5.2823500263       10.2313198565       17.2799388248
  N        19.4267231062        6.7606021255        5.2084028455
  C        20.7431650196        6.4959847529        5.4855416520
  N         8.6500757143        6.6937271546       15.9472898184
  C         9.9663364591        6.4280499424       16.2282419182
  N         2.7882043937        6.7828232789       17.5270950655
  C         1.4696191283        6.5188814644       17.2532168747
  N        13.5555690520        6.6962460772        6.6785781870
  C        12.2400950697        6.4071380634        6.4197722344
  N         2.8532206592       16.0025242691        5.2045046260
  C         1.5363741572       16.2723063868        5.4795859915
  N        13.7352116434       16.0542373419       16.0622007984
  C        12.4175262663       16.3219347687       16.3305944613
  N        19.5921383816       16.0481931407       17.5893370410
  C        20.9103021440       16.3133489249       17.3157955619
  N         8.7214620435       15.9579474452        6.7383005581
  C        10.0392642212       16.2356985268        6.4748977221
  N         6.5679267188       17.5650512869        3.0600745450
  C         6.3056774603       17.3028214010        1.7392326217
  N         6.4645505327        6.7476029813       13.8235426156
  C         6.1876453387        6.4714095983       12.5083687607
  N         6.4767632350        5.2119418360       19.7018831496
  C         6.1882366896        5.4713142151       21.0165732427
  N         6.5942392196       15.9786674160        8.9095490266
  C         6.3450401401       16.2607430813       10.2297600078
  N        15.8907223610       17.6017861398       19.7497270517
  C        16.1442421157       17.3135194487       21.0667701955
  N        15.6419833496        6.7800873032        8.8726222753
  C        15.9178267650        6.5293327244       10.1932637977
  N        15.7682579794        5.1427819206        3.0099786110
  C        16.0516608521        5.4136154053        1.6952769226
  N        15.8703070327       16.0592279037       13.8927222398
  C        16.1335412554       16.3215500583       12.5728762787
 Zn        14.5849818561       14.7707366961       14.7601761379
 Br        13.2255919606       13.5017054212       13.4449506714
 Zn        14.4601047842        3.8481146320        3.8532262245
 Br        13.1787434064        2.5122904286        2.5295404065
 Zn         3.7094491915       14.7209332388        3.8953911692
 Br         2.3819743063       13.4299627959        2.5703206497
 Zn         3.6375679686        3.8903880426       14.7178688368
 Br         2.3128844047        2.5680996681       13.4206740014
 Zn         7.7939804029        8.0095231213       14.6697174208
 Br         9.0844854717        9.3176382038       13.3261070849
 Zn         7.8552020634       18.8498551802        3.9381324760
 Br         9.1730197014       20.1706252405        2.6316347818
 Zn        18.5818949893        8.0219282112        3.8833635788
 Br        19.9097997658        9.3280083632        2.5733205032
 Zn        18.7288048947       18.8960057848       14.7359465105
 Br        20.0436918079       20.2121632797       13.4219483091
 Zn         7.8529961555       14.6638591499        8.0272628204
 Br         9.1554853638       13.3324747674        9.3379775474
 Zn         7.7832548040        3.9237526951       18.8643056802
 Br         9.0989942576        2.6165911182       20.1841869935
 Zn        18.7299541509       14.7509288440       18.8799979464
 Br        20.0388602108       13.4254874501       20.1905778452
 Zn        18.5379311982        3.9442747809        8.0625259797
 Br        19.8387942720        2.6426069484        9.4023031671
 Zn        14.3738974620        8.0474748417        7.9456834476
 Br        12.9287901525        9.4226874863        9.0460242133
 Zn        14.6053469516       18.9048461763       18.8925359329
 Br        13.2937907213       20.2160520864       20.2138031012
 Zn         3.6614879516        8.0740888707       18.8160200896
 Br         2.3573450801        9.4094700242       20.1207054041
 Zn         3.7255968713       18.8200886763        8.0764827266
 Br         2.4158419281       20.1321781626        9.3986458016
 Zn        14.5472084869       14.7247737419        8.0869250001
 Br        13.1855479651       13.4667188886        9.4104034125
 Zn        14.4856413594        3.8991762883       18.8349812622
 Br        13.1837361218        2.5695455204       20.1466921165
 Zn         3.7728394419       14.7261730535       18.8646776656
 Br         2.4458663648       13.4184970406       20.1731510141
 Zn         3.5991183123        3.8713468001        8.0141308678
 Br         2.2785775265        2.5624986646        9.3299082592
 Zn         7.7693808546        7.9728397592        8.0044074406
 Br         9.0684468237        9.2847157984        9.3352583127
 Zn         7.8898290008       18.8911695926       18.8796745207
 Br         9.1889254982       20.2160490853       20.1994778410
 Zn        18.6301909146        8.0456918588       18.8746433223
 Br        19.9663008584        9.3287112453       20.1977173040
 Zn        18.6790603386       18.8776741051        8.0500810602
 Br        20.0022477034       20.2008655423        9.3475083592
 Zn        14.4386782294        8.1221544254       14.7794149852
 Br        12.9534645494        9.5360688040       13.7844134914
 Zn        14.5380623346       18.8316276620        3.9138895551
 Br        13.2154149810       20.1364804636        2.5976026705
 Zn         3.6097171825        8.0392172594        3.8937265575
 Br         2.3013293393        9.3698330278        2.5886521392
 Zn         3.7774612650       18.8463156947       14.7122574707
 Br         2.4617437159       20.1560359522       13.3923273258
 Zn         7.9413869156       14.7280681162       14.7565558297
 Br         9.2504640573       13.4120378468       13.4382339210
 Zn         7.7147815910        3.8581506407        3.8448148027
 Br         9.0206014324        2.5429643160        2.5232367264
 Zn        18.6729077204       14.7011420691        3.9421470352
 Br        19.9770185918       13.3735656788        2.6286804985
 Zn        18.5702913986        3.9954142731       14.6563719371
 Br        19.8678124120        2.6910602528       13.3138938362
 Zn         5.7202849616        5.9771352201       16.7652662964
 Zn        16.6680357289       16.8313532225       16.8215220495
 Zn        16.4866430200        5.9576410263        5.9400191874
 Zn         5.7888021793       16.7641205266        5.9893641268
 Zn         5.6701968101        5.9407746749        5.9434320964
 Zn        16.6101439990       16.7789009056        6.0022257162
 Zn         5.8472663706       16.8027852357       16.8058067027
 Zn        16.5320537061        6.0128157485       16.7783428578
  N         3.5327083808        5.9945034300       16.7577188035
  N        14.3052682444        5.9310621633        5.8927997960
  N        18.8469073280       16.8290450769       16.8130617643
  N         7.9742689148       16.7504122121        5.9758891117
  N        18.6772992651        5.9888920985        5.9887874881
  N         7.9010449104        5.9435728265       16.7494739510
  N         3.6024077376       16.7697451834        5.9905900962
  N        14.4803629227       16.8375778342       16.8349762014
  N        16.5002480353        3.7790100894        5.9687201153
  N        16.6697514828       14.6421631769       16.8087875697
  N        16.6744043715       19.0185247426       16.8154627490
  N        16.4798432109        8.1456906064        5.9122575647
  N         5.7883248145       18.9485708220        6.0060526909
  N         5.7509355269        8.1622050069       16.7569969208
  N         5.7030743524        3.7943401579       16.7927108781
  N         5.7746405837       14.5770250152        5.9669952794
  N         5.7853184858       16.7844641484        3.7986195344
  N         5.7007733080        5.9631133678       14.5777116756
  N        16.6728126769       16.8289124324       19.0025244876
  N        16.4271890635        6.0005930749        8.1319316847
  N         5.7129183265        5.9983803406       18.9505345122
  N         5.8031432390       16.7488136224        8.1683642233
  N        16.5343281116        5.9256275801        3.7638228476
  N        16.6576915949       16.8336886950       14.6322266571
  N         5.6391861426        3.7553344619        5.9208567316
  N         5.8614704891       14.6130501974       16.8099125048
  N        16.6157644475       18.9692762123        5.9776506380
  N        16.5458750562        8.1926902714       16.8275994487
  N         5.8339451332       18.9860269399       16.7940965647
  N         5.7047422561        8.1261095488        5.9375352242
  N        16.5219696701        3.8273108871       16.7234473454
  N        16.6224528634       14.5935865346        6.0329035435
  N         3.6575630090       16.7894970613       16.7879459955
  N        14.4256892676       16.7756536960        5.9972417380
  N        18.7921198231       16.7870890540        5.9954656030
  N         8.0298527656       16.8147063599       16.8206965595
  N        18.7210870290        6.0207032701       16.7494652493
  N         7.8550348732        5.8974224684        5.9308126061
  N         3.4878451689        5.9700959605        5.9686225037
  N        14.3504414026        5.9927717096       16.8068533937
  N        16.5719542889        5.9580355817       18.9570395438
  N        16.6104343927       16.8051781626        8.1824407082
  N        16.5997582471       16.7557667107        3.8122495880
  N        16.4883446985        6.0843533390       14.5833030331
  N         5.6477401789        5.9453110147        3.7590655216
  N         5.8691016843       16.7923679159       14.6184348254
  N         5.8315808985       16.8094800085       18.9877836998
  N         5.6780226050        5.9265199799        8.1272430354
  C        11.2607590716       15.7643439073       15.7818670693
  H        11.2668856209       14.9848799415       15.0103741035
  C        11.0795640817        4.8468671986        4.8504153148
  H        11.0770305252        4.0797425599        4.0666195162
  C         0.3736183468       15.7268570492        4.9302931549
  H         0.3710875239       14.9550117624        4.1511351869
  C         0.3046522228        4.9613392792       15.6813760209
  H         0.3052018480        4.1887328824       14.9030436123
  C        11.1268209584        6.9717411539       15.6756993636
  H        11.1293352020        7.7318151466       14.8856471528
  C        11.1994614923       17.8294093181        4.9386703291
  H        11.1997932366       18.6163458229        4.1747561827
  C         0.2626094410        7.0446385308        4.9321340842
  H         0.2598048217        7.8174473950        4.1538876607
  C         0.4343196912       17.8700128661       15.7450089293
  H         0.4371496823       18.6458150072       14.9697328925
  C        11.2003329402       15.6829770686        7.0210543933
  H        11.2006863000       14.8965661414        7.7854186861
  C        11.1244789738        4.9109810673       17.8420978172
  H        11.1222222010        4.1548847625       18.6364890941
  C         0.4296505010       15.7583718365       17.8631415291
  H         0.4280177373       14.9851540015       18.6408701703
  C         0.2636593398        4.9388920844        7.0565042374
  H         0.2658099425        4.1675853500        7.8361632082
  C        11.0807433131        6.9390450453        6.9868408512
  H        11.0828674309        7.7089453895        7.7675781208
  C        11.2487861571       17.8923511418       17.8838079915
  H        11.2442668152       18.6722355566       18.6549183798
  C         0.3096594470        7.0691412216       17.8029798019
  H         0.3095169884        7.8421559077       18.5810013179
  C         0.3807426349       17.8328242355        7.0543609050
  H         0.3839282938       18.6060540381        7.8321383558
  C        15.5660452987       11.4349059874       15.7500332947
  H        14.7855839456       11.4502093693       14.9801233103
  C        15.5140118807        0.5341206200        4.9075813478
  H        14.7445084344        0.5167565473        4.1262079307
  C         4.6810823517       11.3680328692        4.8963048639
  H         3.9012322946       11.3811109751        4.1252273234
  C         4.7113274156        0.5479962527       15.7340127402
  H         3.9375977749        0.5269332951       14.9569809992
  C        15.5058072298       11.3731797016        7.0425966475
  H        14.7270376215       11.3747180896        7.8144412151
  C        15.5484339044        0.5932359339       17.8260086719
  H        14.7793764554        0.5863424545       18.6080933781
  C         4.7481160053       11.3970214404       17.8330852814
  H         3.9628120331       11.4051933916       18.5986153526
  C         4.6481256165        0.5208953765        7.0176216182
  H         3.8748700288        0.5096478525        7.7953011612
  C         6.8887750558       11.3773214174       15.7448760004
  H         7.6726747877       11.3696011668       14.9778710457
  C         6.7564680377        0.5424853545        4.8950671680
  H         7.5285210163        0.5533228910        4.1161628388
  C        17.6157099812       11.3657239224        4.9224874595
  H        18.3887283443       11.3630224584        4.1443951190
  C        17.6436046092        0.6120796009       15.6915975182
  H        18.4111366777        0.6196108222       14.9084048490
  C         6.8073158390       11.3349719090        6.9995300516
  H         7.5860616000       11.3217386106        7.7716405813
  C         6.8194300966        0.5924153919       17.8555605522
  H         7.5916974733        0.6135854961       18.6339508320
  C        17.6774096304       11.3992188131       17.8679991404
  H        18.4509584406       11.3834086569       18.6454004676
  C        17.6104841968        0.5749169291        7.0403446835
  H        18.3785880082        0.5917095020        7.8229379379
  C        15.5707522007       15.7690185103       11.4198607474
  H        14.7876943752       15.0013607567       11.4318839936
  C        15.5123234697        4.8670142188        0.5289231929
  H        14.7383184526        4.0900391925        0.5185334705
  C         4.7503847313       15.7424163380        0.5610833963
  H         3.9747632340       14.9670634623        0.5502575842
  C         4.6307199600        4.8858716387       11.3624110937
  H         3.8609889682        4.1047824804       11.3710767912
  C         6.9121168270       15.7237464562       11.3891824217
  H         7.6901681636       14.9509280730       11.3852831602
  C         6.7198371734        4.9059084713        0.5366801869
  H         7.4897570748        4.1248442178        0.5382750036
  C        17.6902850228       15.7280812638        0.5869581591
  H        18.4634613332       14.9502821551        0.5866327512
  C        17.5062123541        4.9934191634       11.3613433905
  H        18.2865197268        4.2225038201       11.3651338471
  C        15.3732495073        7.0883957685       11.3538208200
  H        14.5881801253        7.8525409097       11.3474605498
  C        15.5807833520       17.8489039056        0.5872068055
  H        14.8069055801       18.6261263693        0.5879105174
  C         4.6187603830        7.0356978734        0.5328671688
  H         3.8497571051        7.8176772941        0.5306681734
  C         4.7887181294       17.8300605048       11.3967689703
  H         4.0099747579       18.6024591283       11.4005067500
  C         6.7271580402        7.0191330007       11.3424166488
  H         7.4961952106        7.8010775925       11.3334731903
  C         6.8626484548       17.8598479942        0.5849022380
  H         7.6366635451       18.6367757886        0.5954620743
  C        17.6223899734        6.9884469004        0.5521434334
  H        18.3955953192        7.7663022446        0.5618856368
  C        17.6986986714       17.8712587692       11.3943264249
  H        18.4784159125       18.6425685352       11.3828959894
 Xe        15.6830688546       10.9933658894       11.4018612059
