     409
 i =      56, E =    -5133.8780801704
  N         3.0458617778        5.2074177478       16.0251352517
  C         1.7277130883        5.4772659809       16.2932388631
  N        13.8574880469        5.2019542706        5.2019791926
  C        12.5401312596        5.4731478231        5.4731232945
  N        19.7356289647       17.5754545783       16.0191086250
  C        21.0533418522       17.3065692284       16.2908087742
  N         8.9080507088       17.5815358961        5.2083767910
  C        10.2257250697       17.3091276028        5.4759629022
  N        19.7208109432        5.2027940621        6.7587583923
  C        21.0385519211        5.4765128570        6.4921829961
  N         8.9080455420        5.2083818236       17.5815379516
  C        10.2257222659        5.4759765468       17.3091418847
  N         3.0430771677       17.5805468060        6.7639961898
  C         1.7258478417       17.3087257638        6.4931212184
  N        13.8734371200       17.5762743243       17.5762742310
  C        12.5554327357       17.3071443264       17.3071428461
  N        16.0104268820        3.0464538865        5.2015155592
  C        16.2814048741        1.7288530284        5.4716597018
  N        16.0236764856       13.8671065077       16.0191024100
  C        16.2927830009       12.5493241104       16.2891917378
  N        16.0251150787       19.7291875909       17.5747122149
  C        16.2924703308       21.0471170095       17.3029548152
  N        16.0133591134        8.9109665023        6.7579150478
  C        16.2849950695       10.2282982212        6.4882674424
  N         6.7545490540       19.7376505063        5.2098033888
  C         6.4825732099       21.0551705775        5.4795417126
  N         6.7559177668        8.9162023430       16.0249408185
  C         6.4867584782       10.2340018130       16.2950773747
  N         6.7559688918        3.0553528894       17.5832159523
  C         6.4883762764        1.7372499956       17.3121089812
  N         6.7542380067       13.8729941371        6.7630282345
  C         6.4834641134       12.5555217866        6.4929186974
  N         5.2001740101       16.0272559207        3.0536830547
  C         5.4726977226       16.2964859893        1.7361800302
  N         5.1984271966        5.2072621126       13.8739991432
  C         5.4676999863        5.4774154866       12.5561662193
  N        17.5802596435       16.0178599296       19.7305480417
  C        17.3076890546       16.2868099164       21.0481089240
  N        17.5684171830        5.2010412954        8.9097780623
  C        17.3002330761        5.4721733109       10.2275330801
  N         5.1974364005        6.7650415602       19.7364533150
  C         5.4664170852        6.4948543856       21.0543676747
  N         5.1994070244       17.5809604443        8.9175887034
  C         5.4710085185       17.3107885146       10.2349362974
  N        17.5666585093        6.7573086743        3.0474272790
  C        17.2971669789        6.4872301619        1.7295678503
  N        17.5803759211       17.5745250151       13.8658479975
  C        17.3088138688       17.3045436212       12.5484430491
  N         5.1915039120        3.0536106512        6.7636926674
  C         5.4632373573        1.7359716498        6.4943404482
  N         5.2056908604       13.8740724690       17.5819737406
  C         5.4739662728       12.5562119687       17.3111731602
  N        17.5717127869       19.7305290630        6.7564210443
  C        17.2997658952       21.0480084852        6.4868030988
  N        17.5739510618        8.9094481172       17.5761020474
  C        17.3057148677       10.2272200496       17.3051044676
  N         5.2068622738       19.7365305289       16.0258507562
  C         5.4761060386       21.0544734780       16.2959218213
  N         5.1945651082        8.9174186022        5.2079593244
  C         5.4659524067       10.2348704406        5.4777461287
  N        17.5738567101        3.0479091330       16.0172634189
  C        17.3044229853        1.7298433362       16.2866368117
  N        17.5740257119       13.8662362768        5.2025406064
  C        17.3029108693       12.5487508549        5.4726731885
  N         3.0527538567       16.0267924094       17.5825882821
  C         1.7349980182       16.2944816865       17.3101067015
  N        13.8645864308       16.0194369591        6.7575420363
  C        12.5470165744       16.2905061710        6.4883576538
  N        19.7287497140       16.0196819735        5.2028110263
  C        21.0461075014       16.2904493790        5.4747138842
  N         8.9145275884       16.0244097217       16.0244081887
  C        10.2324971037       16.2936406890       16.2936390874
  N        19.7262278755        6.7580139291       17.5764275930
  C        21.0443671118        6.4900712175       17.3064566564
  N         8.9029961964        6.7617879150        6.7617887831
  C        10.2202179483        6.4907207077        6.4906954165
  N         3.0378904420        6.7670591461        5.2109176467
  C         1.7201788301        6.4962344953        5.4805225119
  N        13.8645840129        6.7575347286       16.0194339952
  C        12.5470159355        6.4883687025       16.2905202181
  N        16.0160702799        5.1999911383       19.7292436466
  C        16.2841836565        5.4710011101       21.0472087561
  N        16.0181167723       16.0199335053        8.9107438413
  C        16.2900098981       16.2894715664       10.2281059738
  N        16.0176961667       17.5732689252        3.0461202604
  C        16.2888254824       17.3024158912        1.7287051935
  N        16.0177907678        6.7583737052       13.8670533150
  C        16.2872842169        6.4884297332       12.5493746106
  N         6.7472314973        5.2078850542        3.0547165017
  C         6.4789173382        5.4787658107        1.7367896818
  N         6.7609680637       16.0256413165       13.8728141394
  C         6.4893149444       16.2952593909       12.5553457309
  N         6.7633585364       17.5818067731       19.7379632617
  C         6.4920046738       17.3114945126       21.0554978182
  N         6.7513083398        6.7635658459        8.9166360995
  C         6.4819982710        6.4931308432       10.2343101745
  N        19.7262334830       17.5764251258        6.7580217323
  C        21.0443756851       17.3064661678        6.4900668243
  N         8.9168688661       17.5806799526       17.5806777101
  C        10.2341061038       17.3093727803       17.3093705185
  N         3.0378924407        5.2109164506        6.7670580127
  C         1.7201820302        5.4805193795        6.4962359833
  N        13.8644925670        5.2010241505       17.5751779045
  C        12.5469397990        5.4726271852       17.3061793202
  N         3.0527535905       17.5825885291       16.0267938230
  C         1.7349978923       17.3101069913       16.2944825205
  N        13.8644966503       17.5751786268        5.2010317895
  C        12.5469426168       17.3061642404        5.4726159663
  N        19.7287461768        5.2028021194       16.0196843906
  C        21.0461014046        5.4747176750       16.2904401670
  N         8.9004611774        5.2060337651        5.2060340805
  C        10.2186063170        5.4750973735        5.4750717756
  N         6.7633584355       19.7379634848       17.5818061125
  C         6.4920041222       21.0554984078       17.3114944413
  N         6.7513077637        8.9166358675        6.7635672330
  C         6.4820041526       10.2343100211        6.4931258866
  N         6.7472325328        3.0547162073        5.2078848104
  C         6.4789124496        1.7367894928        5.4787596598
  N         6.7609693847       13.8728138989       16.0256421179
  C         6.4893168949       12.5553455821       16.2952605888
  N        16.0176897388        3.0461160077       17.5732693131
  C        16.2888284940        1.7287013422       17.3024229262
  N        16.0178033632       13.8670452750        6.7583874261
  C        16.2872574755       12.5493736719        6.4884001493
  N        16.0160741703       19.7292348583        5.1999974317
  C        16.2841996512       21.0472055820        5.4709915277
  N        16.0181103627        8.9107396034       16.0199339727
  C        16.2900112655       10.2280989369       16.2894655123
  N        17.5717101549        6.7564172532       19.7305362682
  C        17.2997485942        6.4868118933       21.0480133235
  N        17.5739575515       17.5761012548        8.9094552380
  C        17.3057134262       17.3051102776       10.2272268727
  N         5.1915018693        6.7636915100        3.0536115827
  C         5.4632415159        6.4943456209        1.7359722522
  N         5.2056895697       17.5819731007       13.8740726643
  C         5.4739641469       17.3111721908       12.5562116081
  N        17.5738617250       16.0172645847        3.0479136630
  C        17.3044193630       16.2866302702        1.7298447607
  N        17.5740128126        5.2025278259       13.8662455765
  C        17.3029431478        5.4726977723       12.5487548376
  N         5.2068623878       16.0258506885       19.7365306553
  C         5.4761071764       16.2959217063       21.0544726031
  N         5.1945665835        5.2079575646        8.9174183165
  C         5.4659467906        5.4777504477       10.2348706760
  N        17.5802613358       19.7305439876       16.0178632524
  C        17.3076942736       21.0481060306       16.2868156325
  N        17.5684262316        8.9097719593        5.2010613588
  C        17.3001964991       10.2275224522        5.4721498123
  N         5.2001733363        3.0536848797       16.0272576503
  C         5.4726963160        1.7361807306       16.2964866839
  N         5.1984278127       13.8739978056        5.2072612841
  C         5.4677058848       12.5561658342        5.4774111342
  N        17.5666506900        3.0474175805        6.7573265198
  C        17.2971840149        1.7295598458        6.4872219331
  N        17.5803782659       13.8658414115       17.5745254142
  C        17.3088178491       12.5484362318       17.3045390911
  N         5.1974391542       19.7364533751        6.7650424712
  C         5.4664138759       21.0543661111        6.4948491162
  N         5.1994060279        8.9175884433       17.5809596763
  C         5.4710094961       10.2349370929       17.3107893588
  N        19.7208057795        6.7587478469        5.2028075195
  C        21.0385497179        6.4921751334        5.4765225493
  N         8.9082249708        6.7629244840       16.0244728109
  C        10.2258131657        6.4910263647       16.2928941886
  N         3.0430727981        6.7639978394       17.5805462752
  C         1.7258412871        6.4931283947       17.3087180846
  N        13.8592420487        6.7583329761        6.7583580871
  C        12.5414370236        6.4888965648        6.4888721807
  N         3.0458643449       16.0251350133        5.2074169756
  C         1.7277185894       16.2932471079        5.4772605253
  N        13.8712232643       16.0204366934       16.0204382285
  C        12.5539021101       16.2915091208       16.2915086337
  N        19.7356291348       16.0191063744       17.5754555602
  C        21.0533421909       16.2908078412       17.3065691640
  N         8.9082283395       16.0244704630        6.7629218506
  C        10.2258142261       16.2928815196        6.4910124680
  N         6.7559699686       17.5832168349        3.0553507914
  C         6.4883768601       17.3121087087        1.7372491332
  N         6.7542358780        6.7630277190       13.8729958445
  C         6.4834583795        6.4929237282       12.5555217566
  N         6.7545459986        5.2098047971       19.7376506439
  C         6.4825771553        5.4795477817       21.0551707982
  N         6.7559200811       16.0249406666        8.9162027314
  C         6.4867575152       16.2950766103       10.2340017302
  N        16.0251136186       17.5747088525       19.7291922317
  C        16.2924660608       17.3029483421       21.0471208887
  N        16.0133504054        6.7578935693        8.9109677536
  C        16.2850269353        6.4882948864       10.2283063514
  N        16.0104336773        5.2014981415        3.0464615963
  C        16.2813877234        5.4716681405        1.7288610582
  N        16.0236755120       16.0191033810       13.8671109754
  C        16.2927794151       16.2891966950       12.5493290236
 Zn        14.7277666264       14.7254980587       14.7254977381
 Br        13.4126737714       13.4116421684       13.4116396778
 Zn        14.7177184915        3.9064942052        3.9064975036
 Br        13.3999208649        2.5938177716        2.5938242207
 Zn         3.9053912795       14.7325145219        3.9113069573
 Br         2.5909061322       13.4180802924        2.5972882631
 Zn         3.9053892874        3.9113074584       14.7325144773
 Br         2.5909057223        2.5972871424       13.4180795634
 Zn         8.0501108947        8.0562351619       14.7294029908
 Br         9.3642030657        9.3706178351       13.4148973850
 Zn         8.0497827325       18.8769317409        3.9159491874
 Br         9.3642426737       20.1915793523        2.6017491821
 Zn        18.8620166583        8.0508856749        3.9059819698
 Br        20.1764664238        9.3650412080        2.5916432869
 Zn        18.8746670258       18.8700739445       14.7242709681
 Br        20.1890700423       20.1829879666       13.4085938973
 Zn         8.0501132926       14.7294037265        8.0562336892
 Br         9.3642047965       13.4148982098        9.3706174295
 Zn         8.0497813546        3.9159511921       18.8769328603
 Br         9.3642427099        2.6017512706       20.1915798149
 Zn        18.8746665224       14.7242697406       18.8700756593
 Br        20.1890721643       13.4085948938       20.1829880606
 Zn        18.8620211512        3.9059766072        8.0508968907
 Br        20.1764711252        2.5916348813        9.3650501428
 Zn        14.7197850294        8.0527888055        8.0527957267
 Br        13.4063347008        9.3675892191        9.3675929276
 Zn        14.7321178833       18.8705810354       18.8705838401
 Br        13.4181087117       20.1850909076       20.1850906498
 Zn         3.9030322129        8.0577124379       18.8745142589
 Br         2.5901333513        9.3740201425       20.1885344032
 Zn         3.9030325495       18.8745134322        8.0577104490
 Br         2.5901326325       20.1885345661        9.3740181687
 Zn        14.7232659140       14.7252610525        8.0527673651
 Br        13.4090013071       13.4115661081        9.3676742149
 Zn        14.7234695620        3.9046234528       18.8687969650
 Br        13.4082909138        2.5905924743       20.1824966589
 Zn         3.9113837691       14.7322769400       18.8759559415
 Br         2.5974166205       13.4182636473       20.1911254097
 Zn         3.8992654141        3.9140040441        8.0577279795
 Br         2.5847298680        2.6014636541        9.3740245141
 Zn         8.0471438236        8.0561570027        8.0561559260
 Br         9.3618073108        9.3703687203        9.3703684975
 Zn         8.0569210114       18.8755007438       18.8755005492
 Br         9.3734278256       20.1889159407       20.1889136331
 Zn        18.8670942624        8.0506842132       18.8720925833
 Br        20.1816918841        9.3649737277       20.1861391368
 Zn        18.8671064432       18.8720982842        8.0506915585
 Br        20.1816983390       20.1861487122        9.3649790407
 Zn        14.7232709907        8.0527589162       14.7252640271
 Br        13.4090038736        9.3676682447       13.4115664864
 Zn        14.7234711138       18.8687953766        3.9046236176
 Br        13.4082949673       20.1824957337        2.5905956776
 Zn         3.8992650285        8.0577275466        3.9140059761
 Br         2.5847298616        9.3740231966        2.6014655526
 Zn         3.9113832268       18.8759563057       14.7322768312
 Br         2.5974152082       20.1911254494       13.4182632789
 Zn         8.0543890379       14.7296890381       14.7296884683
 Br         9.3676988210       13.4148892484       13.4148876115
 Zn         8.0402068760        3.9121572345        3.9121554128
 Br         9.3539829263        2.5974493754        2.5974485800
 Zn        18.8699597760       14.7246798713        3.9082139700
 Br        20.1833224507       13.4089140827        2.5944748123
 Zn        18.8699538718        3.9082190090       14.7246830597
 Br        20.1833184489        2.5944763014       13.4089132725
 Zn         5.9749977524        5.9907996518       16.8090904640
 Zn        16.8083821164       16.7967414888       16.7967466827
 Zn        16.7844303675        5.9795127805        5.9795768680
 Zn         5.9750013695       16.8090900082        5.9907963993
 Zn         5.9655835729        5.9905889774        5.9905870768
 Zn        16.7933063134       16.7971926119        5.9792261589
 Zn         5.9893868489       16.8091619576       16.8091616992
 Zn        16.7932958353        5.9792136912       16.7971919215
  N         3.7911684246        5.9859383537       16.8038512501
  N        14.6048296007        5.9797782248        5.9797362405
  N        18.9891482194       16.7965336029       16.7965339175
  N         8.1612910235       16.8041463553        5.9868605755
  N        18.9738370944        5.9788774810        5.9788931842
  N         8.1612882899        5.9868765486       16.8041594839
  N         3.7911726687       16.8038593678        5.9859302009
  N        14.6193168417       16.7978795387       16.7978823607
  N        16.7882140636        3.7937569346        5.9793531183
  N        16.8026982197       14.6131666768       16.7967314413
  N        16.8041389141       18.9830365563       16.7971855717
  N        16.7900522561        8.1635803171        5.9791810222
  N         5.9767360756       18.9905207265        5.9876406270
  N         5.9770704360        8.1704410589       16.8030192100
  N         5.9767479773        3.8014376045       16.8058129426
  N         5.9766939380       14.6204457306        5.9852219463
  N         5.9767501124       16.8058114030        3.8014365243
  N         5.9766847593        5.9852303769       14.6204462444
  N        16.8041355867       16.7971826062       18.9830403220
  N        16.7900968362        5.9792108158        8.1635892326
  N         5.9767438243        5.9876504854       18.9905213851
  N         5.9770690528       16.8030182284        8.1704405945
  N        16.7881858789        5.9793688782        3.7937698169
  N        16.8026979975       16.7967302751       14.6131720667
  N         5.9685175953        3.8011390019        5.9853884839
  N         5.9842732432       14.6204198236       16.8042109174
  N        16.7949142604       18.9830870301        5.9777761776
  N        16.7951131941        8.1633435396       16.7983779868
  N         5.9856173968       18.9906900462       16.8039255953
  N         5.9722549244        8.1705244624        5.9860680205
  N        16.7954257284        3.7937616582       16.7957540497
  N        16.7962915114       14.6133519946        5.9804812044
  N         3.7997637526       16.8060013753       16.8060015677
  N        14.6111643553       16.7968084312        5.9787185814
  N        18.9806353912       16.7979503971        5.9794569156
  N         8.1692165508       16.8030895686       16.8030897046
  N        18.9806296132        5.9794664285       16.7979333113
  N         8.1547431081        5.9844997537        5.9844763032
  N         3.7844338967        5.9892917508        5.9892904613
  N        14.6111617543        5.9787367870       16.7968321613
  N        16.7948974243        5.9777855457       18.9830922608
  N        16.7951132603       16.7983846113        8.1633506219
  N        16.7954193155       16.7957439190        3.7937657471
  N        16.7963249350        5.9805158244       14.6133597310
  N         5.9685274724        5.9853987287        3.8011394251
  N         5.9842709165       16.8042096386       14.6204201086
  N         5.9856184679       16.8039252784       18.9906896736
  N         5.9722442590        5.9860777801        8.1705246612
  C        11.3922502840       15.7429025308       15.7429013802
  H        11.3907253522       14.9673889153       14.9673886772
  C        11.3784233962        4.9244929378        4.9244726474
  H        11.3770751206        4.1490053578        4.1489819771
  C         0.5681514533       15.7419337901        4.9266908752
  H         0.5702954294       14.9662772331        4.1513578685
  C         0.5681451759        4.9266958251       15.7419279468
  H         0.5702930595        4.1513638155       14.9662689422
  C        11.3864660869        7.0391623828       15.7417503468
  H        11.3865556670        7.8145921008       14.9661569490
  C        11.3862328065       17.8573699610        4.9246453206
  H        11.3861045469       18.6331432925        4.1494199507
  C         0.5593377558        7.0444179248        4.9295538331
  H         0.5594377620        7.8203287231        4.1544671358
  C         0.5742347973       17.8579017562       15.7430373676
  H         0.5743852101       18.6336936719       14.9678258236
  C        11.3864649124       15.7417372700        7.0391523632
  H        11.3865549117       14.9661409964        7.8145779763
  C        11.3862299673        4.9246576480       17.8573836509
  H        11.3860992983        4.1494362405       18.6331624321
  C         0.5742358259       15.7430357429       17.8579011171
  H         0.5743855179       14.9678236582       18.6336920506
  C         0.5593418471        4.9295463343        7.0444217927
  H         0.5594466508        4.1544590001        7.8203309837
  C        11.3816337930        7.0394832162        7.0394633070
  H        11.3828778929        7.8149991113        7.8149765163
  C        11.3958153186       17.8578960127       17.8578931143
  H        11.3973496734       18.6333883437       18.6333852562
  C         0.5638735269        7.0414529686       17.8569767163
  H         0.5620046664        7.8170318186       18.6324092077
  C         0.5638824113       17.8569850663        7.0414482060
  H         0.5620133191       18.6324200650        7.8170244430
  C        15.7416767695       11.3892767160       15.7396369686
  H        14.9660016366       11.3901310842       14.9642898647
  C        15.7328232445        0.5675333421        4.9220774461
  H        14.9568213765        0.5668029513        4.1470687002
  C         4.9169807123       11.3958804836        4.9280929632
  H         4.1410950054       11.3963080841        4.1529935753
  C         4.9248976809        0.5747020181       15.7465769851
  H         4.1491462392        0.5736627930       14.9713155532
  C        15.7365875832       11.3893215302        7.0382387182
  H        14.9611353129       11.3900292719        7.8138061582
  C        15.7408226780        0.5671961297       17.8520194493
  H        14.9652938011        0.5660889998       18.6275045740
  C         4.9229268042       11.3961901635       17.8607189779
  H         4.1477582858       11.3970544248       18.6365322032
  C         4.9151777387        0.5745932387        7.0441777382
  H         4.1396148464        0.5736318508        7.8196147568
  C         7.0376096272       11.3941539919       15.7453647563
  H         7.8130932940       11.3933078571       14.9698203083
  C         7.0304713533        0.5766727045        4.9296854842
  H         7.8060183106        0.5778434133        4.1542206121
  C        17.8511356099       11.3876386547        4.9226154258
  H        18.6262535276       11.3868158792        4.1467410818
  C        17.8550543428        0.5696939209       15.7365435884
  H        18.6300165503        0.5708846909       14.9605084349
  C         7.0325478281       11.3946448473        7.0426233671
  H         7.8081017970       11.3941607634        7.8180936532
  C         7.0399795604        0.5771043796       17.8611708988
  H         7.8154955297        0.5782575730       18.6366481035
  C        17.8571790335       11.3872445970       17.8542520991
  H        18.6329250720       11.3863391358       18.6294968069
  C        17.8477837392        0.5693016508        7.0368690031
  H        18.6230219060        0.5702043505        7.8126326410
  C        15.7416733348       15.7396420526       11.3892831243
  H        14.9659980108       14.9642953482       11.3901342299
  C        15.7328089007        4.9220837754        0.5675383267
  H        14.9568059575        4.1470775048        0.5668075367
  C         4.9248991301       15.7465764422        0.5747014643
  H         4.1491486033       14.9713146764        0.5736621008
  C         4.9169759089        4.9280959284       11.3958804762
  H         4.1410883383        4.1529979201       11.3963083386
  C         7.0376082749       15.7453636683       11.3941546048
  H         7.8130914850       14.9698187561       11.3933085653
  C         7.0304755605        4.9296908697        0.5766728384
  H         7.8060252481        4.1542288128        0.5778433805
  C        17.8550511697       15.7365367441        0.5696951195
  H        18.6300117269       14.9605010242        0.5708865268
  C        17.8511626178        4.9226412293       11.3876473702
  H        18.6262880403        4.1467670688       11.3868235188
  C        15.7366183137        7.0382594557       11.3893267663
  H        14.9611649095        7.8138343011       11.3900286499
  C        15.7408188756       17.8520135348        0.5671988028
  H        14.9652897273       18.6274969679        0.5660939335
  C         4.9151800093        7.0441815186        0.5745942333
  H         4.1396184854        7.8196199168        0.5736331577
  C         4.9229254604       17.8607177456       11.3961896548
  H         4.1477560601       18.6365305131       11.3970540043
  C         7.0325425639        7.0426275074       11.3946457631
  H         7.8080943333        7.8181002851       11.3941613097
  C         7.0399796105       17.8611710755        0.5771034937
  H         7.8154954653       18.6366483931        0.5782571949
  C        17.8477678757        7.0368738809        0.5693061412
  H        18.6230041867        7.8126393048        0.5702093143
  C        17.8571775045       17.8542588757       11.3872543967
  H        18.6329231338       18.6295033425       11.3863485239
 Xe         0.0965763750       10.5583253073       10.5583253335
