     409
 i =      56, E =    -5133.8838619147
  N         2.9871760643        5.2319206067       16.0591487853
  C         1.6675060113        5.4964487157       16.3211795853
  N        13.7560020987        5.2041917681        5.2041924905
  C        12.4407544409        5.4812634898        5.4812644067
  N        19.7058150022       17.5744865098       16.0178634496
  C        21.0237288558       17.3193086435       16.3034017671
  N         8.8460703182       17.6184199907        5.2337723270
  C        10.1636579553       17.3352958526        5.4926869385
  N        19.6228519510        5.1955462715        6.7508605545
  C        20.9400643347        5.4835144133        6.4990614524
  N         8.8460699913        5.2337721490       17.6184205986
  C        10.1636577870        5.4926859349       17.3352962119
  N         2.9729709136       17.6072969616        6.7950738654
  C         1.6573126408       17.3334704204        6.5153921561
  N        13.8525528898       17.5782841210       17.5782833565
  C        12.5331386949       17.3138412683       17.3138380983
  N        15.9050041918        3.0375611594        5.1935986731
  C        16.1821163942        1.7203575043        5.4614468412
  N        15.9894301699       13.8637918716       16.0131462371
  C        16.2534785664       12.5453139546       16.2829255685
  N        16.0022669636       19.7229322228       17.5698426627
  C        16.2621272127       21.0408896772       17.2941124061
  N        15.9294087077        8.9073494050        6.7512441233
  C        16.2047727033       10.2239959829        6.4813541436
  N         6.6809627425       19.7752081910        5.2508895015
  C         6.3983355026       21.0907995352        5.5189370765
  N         6.7002903564        8.9423616102       16.0523548444
  C         6.4379402884       10.2615213144       16.3236354403
  N         6.6949675955        3.0888454888       17.6292465051
  C         6.4365575836        1.7693768464       17.3559617594
  N         6.6910311326       13.9012317460        6.7856452244
  C         6.4134832313       12.5843921144        6.5175462021
  N         5.1426093936       16.0693626251        3.0798142376
  C         5.4222680475       16.3388182778        1.7637920922
  N         5.1296823451        5.2358392086       13.9075926436
  C         5.3925108897        5.5072363286       12.5890096197
  N        17.5511677798       16.0082153744       19.7273902944
  C        17.2744064772       16.2752991843       21.0446754717
  N        17.4786057183        5.1898824759        8.9014286297
  C        17.2172273898        5.4626819592       10.2200683669
  N         5.1239211797        6.8058299008       19.7638129185
  C         5.3824799642        6.5345366970       21.0839597391
  N         5.1409462114       17.6043507797        8.9498995974
  C         5.4208599360       17.3379390079       10.2662800685
  N        17.4649700613        6.7459963993        3.0425654643
  C        17.1995854240        6.4754730574        1.7245197092
  N        17.5479840425       17.5663064726       13.8573641519
  C        17.2703825113       17.2974268276       12.5407167725
  N         5.0839080702        3.0838094702        6.8000222692
  C         5.3620050790        1.7665897172        6.5318600216
  N         5.1715673698       13.9056762347       17.6126519213
  C         5.4354571204       12.5871690080       17.3417229095
  N        17.4948294806       19.7284074643        6.7427846314
  C        17.2154376290       21.0441472642        6.4737560625
  N        17.5092682180        8.9011502806       17.5755163949
  C        17.2511750481       10.2198531247       17.3009908409
  N         5.1834886047       19.7643858234       16.0599271110
  C         5.4437158777       21.0826727316       16.3345690364
  N         5.0968380232        8.9517345845        5.2426972146
  C         5.3789716711       10.2680122127        5.5081908678
  N        17.5207508276        3.0457284903       16.0022032804
  C        17.2583003743        1.7264010118       16.2724151820
  N        17.5137869561       13.8582654691        5.2022287228
  C        17.2344167608       12.5413675914        5.4681305145
  N         3.0235456849       16.0648240479       17.6205514029
  C         1.7057427763       16.3268535520       17.3424911781
  N        13.8004080579       16.0149228774        6.7547331693
  C        12.4832724645       16.2954098293        6.4919584613
  N        19.6718713046       16.0233903034        5.2050231613
  C        20.9866741049       16.3030271580        5.4815240135
  N         8.8835842622       16.0466070499       16.0466040040
  C        10.2034441628       16.3106982966       16.3106940321
  N        19.6547141284        6.7566985774       17.5833988349
  C        20.9754392304        6.4959887026       17.3199232309
  N         8.8130880208        6.7857353936        6.7857359865
  C        10.1286217651        6.5098408341        6.5098417902
  N         2.9379606927        6.8058920831        5.2497900463
  C         1.6205022811        6.5265912813        5.5108470918
  N        13.8004082059        6.7547318772       16.0149237952
  C        12.4832725880        6.4919567215       16.2954101548
  N        15.9433370543        5.1837894432       19.7189217016
  C        16.2010795610        5.4569581673       21.0384948057
  N        15.9574902977       16.0168133133        8.9082300437
  C        16.2367782056       16.2842395200       10.2246327243
  N        15.9627344792       17.5562105526        3.0371512531
  C        16.2425485002       17.2881580604        1.7212152978
  N        15.9555793578        6.7565661279       13.8632483386
  C        16.2186412212        6.4838835736       12.5449609581
  N         6.6376952187        5.2418317587        3.0897259112
  C         6.3765679878        5.5150499514        1.7715267789
  N         6.7248477185       16.0550436499       13.8998107053
  C         6.4501929744       16.3252185350       12.5830105280
  N         6.7417403039       17.6133746444       19.7691986557
  C         6.4604157967       17.3493525409       21.0867989015
  N         6.6696270088        6.7809640591        8.9438562006
  C         6.4053472519        6.5125211243       10.2628815311
  N        19.6547141850       17.5833973527        6.7566991760
  C        20.9754393647       17.3199222106        6.4959887442
  N         8.8960283980       17.6020558253       17.6020527287
  C        10.2119591552       17.3263895103       17.3263851629
  N         2.9379608439        5.2497889070        6.8058903757
  C         1.6205023894        5.5108462439        6.5265901311
  N        13.8026737820        5.1941873543       17.5661305671
  C        12.4848015068        5.4748067219       17.3096417130
  N         3.0235455234       17.6205536289       16.0648239404
  C         1.7057426039       17.3424928196       16.3268532526
  N        13.8026739420       17.5661281208        5.1941873809
  C        12.4848016044       17.3096405156        5.4748075930
  N        19.6718712435        5.2050221636       16.0233921382
  C        20.9866739972        5.4815236309       16.3030285113
  N         8.7994224449        5.2307846360        5.2307848570
  C        10.1193671012        5.4943118362        5.4943124852
  N         6.7417402989       19.7691999191       17.6133737999
  C         6.4604160735       21.0868001313       17.3493515585
  N         6.6696272083        8.9438564092        6.7809641138
  C         6.4053474132       10.2628817648        6.5125211962
  N         6.6376951628        3.0897261104        5.2418304560
  C         6.3765683390        1.7715268544        5.5150486992
  N         6.7248489271       13.8998113740       16.0550425726
  C         6.4501939501       12.5830111552       16.3252172099
  N        15.9627327956        3.0371513734       17.5562111807
  C        16.2425464548        1.7212155053       17.2881581218
  N        15.9555787030       13.8632475587        6.7565660000
  C        16.2186394859       12.5449601095        6.4838825904
  N        15.9433360100       19.7189202968        5.1837901534
  C        16.2010782441       21.0384934604        5.4569591541
  N        15.9574906081        8.9082294892       16.0168132939
  C        16.2367803653       10.2246323631       16.2842374312
  N        17.4948291049        6.7427854341       19.7284087926
  C        17.2154380103        6.4737560297       21.0441486756
  N        17.5092661505       17.5755179364        8.9011505120
  C        17.2511716152       17.3009940095       10.2198533823
  N         5.0839068790        6.8000223645        3.0838095641
  C         5.3620039418        6.5318604672        1.7665897796
  N         5.1715664843       17.6126534016       13.9056755516
  C         5.4354563294       17.3417244499       12.5871683064
  N        17.5207516867       16.0022019836        3.0457281829
  C        17.2583017759       16.2724144791        1.7264006963
  N        17.5137880087        5.2022291096       13.8582664219
  C        17.2344186509        5.4681316808       12.5413685247
  N         5.1834883143       16.0599281178       19.7643843853
  C         5.4437154587       16.3345701186       21.0826713983
  N         5.0968370899        5.2426978770        8.9517343958
  C         5.3789709854        5.5081913466       10.2680120336
  N        17.5511677929       19.7273907325       16.0082168179
  C        17.2744054703       21.0446758221       16.2752999574
  N        17.4786037965        8.9014278404        5.1898815105
  C        17.2172249583       10.2200674777        5.4626805024
  N         5.1426089135        3.0798154641       16.0693625641
  C         5.4222680112        1.7637933125       16.3388176485
  N         5.1296826128       13.9075927572        5.2358384392
  C         5.3925112044       12.5890097787        5.5072357850
  N        17.4649694430        3.0425641377        6.7459977031
  C        17.1995846124        1.7245183756        6.4754742585
  N        17.5479866195       13.8573639143       17.5663036536
  C        17.2703863039       12.5407164630       17.2974230007
  N         5.1239223993       19.7638128676        6.8058289653
  C         5.3824812725       21.0839596496        6.5345358505
  N         5.1409469383        8.9499003934       17.6043500344
  C         5.4208605948       10.2662807577       17.3379377940
  N        19.6228518172        6.7508617727        5.1955479553
  C        20.9400642540        6.4990623141        5.4835155592
  N         8.8446940679        6.7819625647       16.0556197610
  C        10.1624307727        6.5051279662       16.3164636617
  N         2.9729707858        6.7950757953       17.6072963321
  C         1.6573124504        6.5153934958       17.3334703811
  N        13.7708356056        6.7608002342        6.7608019225
  C        12.4504997137        6.4971193477        6.4971208023
  N         2.9871761453       16.0591485500        5.2319194410
  C         1.6675061190       16.3211791320        5.4964479034
  N        13.8401623650       16.0222517693       16.0222510207
  C        12.5246569973       16.2982127225       16.2982096043
  N        19.7058153350       16.0178632618       17.5744856483
  C        21.0237290163       16.3034019021       17.3193076300
  N         8.8446938640       16.0556200351        6.7819637407
  C        10.1624306412       16.3164640141        6.5051296477
  N         6.6949684242       17.6292464089        3.0888443665
  C         6.4365577515       17.3559622431        1.7693757032
  N         6.6910316929        6.7856450316       13.9012314395
  C         6.4134835115        6.5175461318       12.5843918284
  N         6.6809620091        5.2508910538       19.7752081991
  C         6.3983347287        5.5189384634       21.0907995478
  N         6.7002895104       16.0523554056        8.9423612836
  C         6.4379395158       16.3236365336       10.2615208527
  N        16.0022679186       17.5698422793       19.7229321165
  C        16.2621288476       17.2941124075       21.0408895413
  N        15.9294105726        6.7512450880        8.9073502118
  C        16.2047750569        6.4813555899       10.2239968578
  N        15.9050054785        5.1935967591        3.0375622759
  C        16.1821178097        5.4614450525        1.7203586877
  N        15.9894292908       16.0131473062       13.8637921046
  C        16.2534761696       16.2829283184       12.5453143602
 Zn        14.6948527158       14.7249644539       14.7249649017
 Br        13.3679032468       13.4169758007       13.4169756992
 Zn        14.6082377653        3.9046637180        3.9046645230
 Br        13.2833441227        2.5956934979        2.5956942063
 Zn         3.8482753924       14.7726133874        3.9378422185
 Br         2.5348822029       13.4627265237        2.6174866042
 Zn         3.8482749446        3.9378433027       14.7726133362
 Br         2.5348816277        2.6174878686       13.4627264642
 Zn         7.9903936225        8.0716737919       14.7621596006
 Br         9.2998101583        9.3843823528       13.4400475488
 Zn         7.9803592606       18.9262696747        3.9561023290
 Br         9.2963900763       20.2407714407        2.6435379510
 Zn        18.7655319978        8.0362507840        3.8963604704
 Br        20.0799309730        9.3468336198        2.5781727192
 Zn        18.8400628625       18.8620177948       14.7170656612
 Br        20.1569449418       20.1707102509       13.3985736334
 Zn         7.9903926223       14.7621597888        8.0716742133
 Br         9.2998090082       13.4400476837        9.3843829161
 Zn         7.9803576772        3.9561028475       18.9262703834
 Br         9.2963882563        2.6435382492       20.2407722222
 Zn        18.8400632939       14.7170651431       18.8620164048
 Br        20.1569457355       13.3985739829       20.1707094846
 Zn        18.7655321722        3.8963599734        8.0362509765
 Br        20.0799314090        2.5781724802        9.3468338592
 Zn        14.6440243214        8.0523033715        8.0523040623
 Br        13.3336709696        9.3691106525        9.3691116869
 Zn        14.7162894186       18.8702483484       18.8702490763
 Br        13.4079723934       20.1874518578       20.1874530534
 Zn         3.8371398452        8.0988452803       18.8893294091
 Br         2.5237650614        9.4164072675       20.2026487890
 Zn         3.8371398765       18.8893298567        8.0988432843
 Br         2.5237648740       20.2026495198        9.4164048659
 Zn        14.6628612186       14.7233760680        8.0514680908
 Br        13.3472352946       13.4140814512        9.3690789293
 Zn        14.6618934167        3.8904690220       18.8452972460
 Br        13.3482987528        2.5733286051       20.1591352456
 Zn         3.8880410280       14.7701953371       18.9087529092
 Br         2.5714136463       13.4595489118       20.2256247035
 Zn         3.7959795050        3.9522424007        8.0978784501
 Br         2.4832653937        2.6395417568        9.4151426609
 Zn         7.9518393135        8.0771802329        8.0771803268
 Br         9.2590107323        9.3962319087        9.3962320567
 Zn         8.0415299396       18.8957928073       18.8957916809
 Br         9.3613607277       20.2082597554       20.2082590690
 Zn        18.7852252598        8.0413403813       18.8791416082
 Br        20.1038994344        9.3508652222       20.1951682936
 Zn        18.7852252711       18.8791410213        8.0413403274
 Br        20.1038997006       20.1951677824        9.3508647138
 Zn        14.6628610458        8.0514670696       14.7233769343
 Br        13.3472345782        9.3690775823       13.4140824611
 Zn        14.6618934905       18.8452946083        3.8904690216
 Br        13.3482986729       20.1591325489        2.5733286707
 Zn         3.7959792506        8.0978793663        3.9522426109
 Br         2.4832648649        9.4151436459        2.6395423288
 Zn         3.8880407428       18.9087554649       14.7701949421
 Br         2.5714131445       20.2256267344       13.4595483019
 Zn         8.0129482557       14.7593176661       14.7593162798
 Br         9.3163724361       13.4385220881       13.4385204334
 Zn         7.9280233709        3.9457293554        3.9457287061
 Br         9.2326559892        2.6258452235        2.6258439833
 Zn        18.8189813298       14.7185163822        3.9165637339
 Br        20.1314967737       13.3996198636        2.6051117522
 Zn        18.8189810756        3.9165632977       14.7185176075
 Br        20.1314966364        2.6051111629       13.3996214163
 Zn         5.9091234792        6.0129910268       16.8356553344
 Zn        16.7760045104       16.7871019882       16.7871035269
 Zn        16.6888066904        5.9652840194        5.9652850240
 Zn         5.9091236444       16.8356553724        6.0129902602
 Zn         5.8637626713        6.0158495937        6.0158493795
 Zn        16.7286375083       16.7852796574        5.9673831303
 Zn         5.9564880260       16.8329382604       16.8329373631
 Zn        16.7286372359        5.9673824652       16.7852812941
  N         3.7267620050        6.0170371648       16.8358272592
  N        14.5095414945        5.9791284343        5.9791296493
  N        18.9596412734       16.7879619931       16.7879618493
  N         8.0984432053       16.8423147758        6.0126792968
  N        18.8758497749        5.9634534862        5.9634537616
  N         8.0984432185        6.0126789871       16.8423150321
  N         3.7267621754       16.8358276845        6.0170353744
  N        14.5931095156       16.7974788595       16.7974791620
  N        16.6822687400        3.7864338978        5.9705233730
  N        16.7718960028       14.6071326099       16.7893683099
  N        16.7810134055       18.9779575241       16.7915258643
  N        16.7005560440        8.1572205175        5.9697453851
  N         5.9085920034       19.0228561010        6.0292239025
  N         5.9159777161        8.1994182381       16.8271653892
  N         5.9135126623        3.8308883982       16.8503411413
  N         5.9142473443       14.6512736815        6.0096402868
  N         5.9135135919       16.8503408068        3.8308872922
  N         5.9142475681        6.0096405951       14.6512734238
  N        16.7810135660       16.7915247788       18.9779572942
  N        16.7005575602        5.9697460189        8.1572213444
  N         5.9085910713        6.0292251869       19.0228561923
  N         5.9159769348       16.8271658153        8.1994176092
  N        16.6822695921        5.9705217712        3.7864351199
  N        16.7718949312       16.7893695153       14.6071328592
  N         5.8568217686        3.8333875484        6.0191858416
  N         5.9509743402       14.6495697103       16.8339470947
  N        16.7247424817       18.9765674352        5.9620495421
  N        16.7281153482        8.1575581958       16.7982584616
  N         5.9676017714       19.0201697376       16.8335107559
  N         5.8782621877        8.2010592890        6.0132097951
  N        16.7372343052        3.7878281843       16.7787026413
  N        16.7386380478       14.6070797061        5.9811612038
  N         3.7703860676       16.8463257761       16.8463246075
  N        14.5480770905       16.7845721879        5.9694794505
  N        18.9165451018       16.7994357465        5.9771970405
  N         8.1430745038       16.8271060803       16.8271037250
  N        18.9165449564        5.9771960340       16.7994375761
  N         8.0588758909        6.0114094277        6.0114096122
  N         3.6843616839        6.0320690985        6.0320687640
  N        14.5480771656        5.9694790898       16.7845742768
  N        16.7247425195        5.9620498365       18.9765687202
  N        16.7281149836       16.7982581926        8.1575586577
  N        16.7372353427       16.7787013124        3.7878279349
  N        16.7386383424        5.9811610016       14.6070806734
  N         5.8568212728        6.0191864606        3.8333875000
  N         5.9509732915       16.8339483559       14.6495690028
  N         5.9676017516       16.8335116466       19.0201684313
  N         5.8782615925        6.0132101456        8.2010590956
  C        11.3583044165       15.7547636651       15.7547594420
  H        11.3495781828       14.9792916644       14.9792875386
  C        11.2739787421        4.9382041251        4.9382047002
  H        11.2645672114        4.1627440294        4.1627441979
  C         0.5146517024       15.7631507123        4.9386790452
  H         0.5274051878       14.9884019920        4.1625207736
  C         0.5146516740        4.9386790340       15.7631518491
  H         0.5274052781        4.1625204248       14.9884034655
  C        11.3211213178        7.0478379949       15.7557025169
  H        11.3184441681        7.8226828627       14.9795013223
  C        11.3259291213       17.8726851600        4.9344633865
  H        11.3289726413       18.6487152319        4.1594694686
  C         0.4601833974        7.0645751417        4.9492506904
  H         0.4598935383        7.8413711037        4.1750081025
  C         0.5447805622       17.8820673351       15.7673508624
  H         0.5452869478       18.6589919997       14.9932517186
  C        11.3211210248       15.7557031722        7.0478404054
  H        11.3184436494       14.9795026531        7.8226859204
  C        11.3259288249        4.9344626916       17.8726861912
  H        11.3289720295        4.1594693846       18.6487168802
  C         0.5447809342       15.7673503704       17.8820653540
  H         0.5452876557       14.9932503856       18.6589891254
  C         0.4601836520        4.9492485179        7.0645729737
  H         0.4598940545        4.1750044020        7.8413673925
  C        11.2953788400        7.0531091605        7.0531106586
  H        11.3044524227        7.8285980118        7.8285998415
  C        11.3782722931       17.8698453214       17.8698409273
  H        11.3874740195       18.6453719616       18.6453676245
  C         0.4888513281        7.0557607639       17.8759424720
  H         0.4765162354        7.8319208387       18.6507164592
  C         0.4888515645       17.8759422346        7.0557598633
  H         0.4765166009       18.6507164897        7.8319196566
  C        15.6957345598       11.3884359432       15.7333832872
  H        14.9198361054       11.3938359600       14.9582694822
  C        15.6408139770        0.5560561074        4.9105071616
  H        14.8640264088        0.5503947739        4.1363408630
  C         4.8310238456       11.4314483715        4.9630232527
  H         4.0492325079       11.4360900977        4.1938643484
  C         4.8827835017        0.5993358426       15.7877610551
  H         4.1062646827        0.5930073997       15.0132548537
  C        15.6625742723       11.3870411180        7.0329877708
  H        14.8882429647       11.3910831436        7.8096998473
  C        15.7029729700        0.5578890386       17.8413263623
  H        14.9280872086        0.5525381648       18.6175037101
  C         4.8788740938       11.4292449705       17.8900778487
  H         4.1036270219       11.4332608366       18.6658849425
  C         4.8224342573        0.6011922912        7.0824899022
  H         4.0466866977        0.5946359291        7.8576679422
  C         6.9942000924       11.4197323195       15.7750657927
  H         7.7694402994       11.4160167923       14.9992822492
  C         6.9360900301        0.6152216740        4.9664068777
  H         7.7100071828        0.6222005819        4.1892558051
  C        17.7742514994       11.3780267501        4.9143961233
  H        18.5481375340       11.3737555492        4.1372968722
  C        17.8144248416        0.5685426410       15.7224439976
  H        18.5875017146        0.5736212821       14.9445352053
  C         6.9618470925       11.4203794870        7.0618105198
  H         7.7398507254       11.4153397083        7.8347862357
  C         6.9974500654        0.6119415007       17.9027466808
  H         7.7723739387        0.6184954933       18.6787974760
  C        17.8114139375       11.3767087049       17.8482484244
  H        18.5875676151       11.3710231403       18.6231703250
  C        17.7568320020        0.5675661544        7.0247541862
  H        18.5323300446        0.5729396821        7.8003115772
  C        15.6957323025       15.7333853509       11.3884363203
  H        14.9198350053       14.9582707489       11.3938365182
  C        15.6408158664        4.9105051978        0.5560572211
  H        14.8640288982        4.1363382847        0.5503956501
  C         4.8827831522       15.7877621175        0.5993345343
  H         4.1062642482       15.0132560069        0.5930060706
  C         4.8310230172        4.9630240656       11.4314482914
  H         4.0492312782        4.1938655999       11.4360902036
  C         6.9941992297       15.7750670151       11.4197318704
  H         7.7694393796       14.9992833916       11.4160165392
  C         6.9360899206        4.9664085951        0.6152215052
  H         7.7100076837        4.1892581611        0.6222001814
  C        17.8144257463       15.7224430034        0.5685421488
  H        18.5875019315       14.9445335030        0.5736206023
  C        17.7742539510        4.9143977451       11.3780276872
  H        18.5481401319        4.1372986131       11.3737566009
  C        15.6625764884        7.0329891071       11.3870419266
  H        14.8882450356        7.8097010847       11.3910838643
  C        15.7029754553       17.8413269057        0.5578889268
  H        14.9280901428       18.6175047783        0.5525382531
  C         4.8224325799        7.0824901498        0.6011924790
  H         4.0466844396        7.8576676017        0.5946363083
  C         4.8788735073       17.8900793640       11.4292441478
  H         4.1036264528       18.6658865056       11.4332598542
  C         6.9618475286        7.0618100860       11.4203791293
  H         7.7398516807        7.8347852674       11.4153391853
  C         6.9974499055       17.9027474632        0.6119403183
  H         7.7723738254       18.6787982330        0.6184943007
  C        17.7568322544        7.0247539487        0.5675676533
  H        18.5323296835        7.8003119945        0.5729415501
  C        17.8114092548       17.8482532868       11.3767088120
  H        18.5875619059       18.6231759418       11.3710232217
 Xe         4.4111381330        9.6761685105        9.6761688920
