     409
 i =      56, E =    -5133.8839715067
  N         2.7589381184        5.2389546352       16.0346302764
  C         1.4404388700        5.5027545134       16.3059052783
  N        13.5792176390        5.2065968999        5.2258519631
  C        12.2618217975        5.4828097355        5.4920709094
  N        19.4698917231       17.5821383597       16.0401188518
  C        20.7884632942       17.3189571963       16.3113845592
  N         8.6592813019       17.6101311433        5.2218231527
  C         9.9765529317       17.3317723187        5.4873487625
  N        19.4459033893        5.2114439749        6.7724554254
  C        20.7623088700        5.4903647866        6.5056489894
  N         8.6181820509        5.2277395426       17.5978712182
  C         9.9370601257        5.4898867654       17.3257251029
  N         2.7894140535       17.6067917617        6.7665986062
  C         1.4726778247       17.3332733087        6.4961790923
  N        13.6144019167       17.5801148716       17.5985188723
  C        12.2956520286       17.3177926598       17.3262734857
  N        15.7339367487        3.0477689294        5.2307416912
  C        16.0105766595        1.7309748127        5.4984245220
  N        15.7591432746       13.8703208462       16.0365380700
  C        16.0237492305       12.5518322650       16.3065370718
  N        15.7632380687       19.7280892236       17.5952788950
  C        16.0221857883       21.0465745647       17.3210644852
  N        15.7383829391        8.9164589950        6.7760798849
  C        16.0176016787       10.2328792728        6.5114183604
  N         6.4971877888       19.7680320818        5.2231215351
  C         6.2172385288       21.0848661455        5.4882165241
  N         6.4763700681        8.9414573760       16.0364817155
  C         6.2109789044       10.2605080534       16.3052358202
  N         6.4604158696        3.0833027529       17.5982393403
  C         6.1984914139        1.7648446268       17.3255463155
  N         6.4980945783       13.9007458666        6.7714361869
  C         6.2234125773       12.5836340268        6.5028062978
  N         4.9547684770       16.0615219521        3.0622564244
  C         5.2245278751       16.3326999703        1.7451740436
  N         4.9135655450        5.2346367328       13.8842022495
  C         5.1832594239        5.5054201177       12.5665398986
  N        17.3228495761       16.0117417205       19.7477879036
  C        17.0543269956       16.2814416646       21.0661233234
  N        17.2999906688        5.2129395452        8.9299565278
  C        17.0290366400        5.4822338942       10.2477376280
  N         4.9034858953        6.7983788327       19.7469224406
  C         5.1735353931        6.5295479241       21.0651815019
  N         4.9416018734       17.6082952300        8.9261185790
  C         5.2131556481       17.3401031245       10.2439285391
  N        17.2806914544        6.7560487271        3.0664716913
  C        17.0107612160        6.4831103483        1.7494358600
  N        17.3197362447       17.5761425414       13.8862604337
  C        17.0504780750       17.3056673972       12.5683884254
  N         4.9106390092        3.0796109902        6.7679612562
  C         5.1857864582        1.7625991196        6.4985340488
  N         4.9431407911       13.9041618690       17.5931264052
  C         5.2061108326       12.5857864223       17.3209754453
  N        17.3176516175       19.7364651489        6.7753999262
  C        17.0402399150       21.0533698722        6.5088386927
  N        17.2866047671        8.9094923959       17.5981703659
  C        17.0254325370       10.2276381814       17.3246889494
  N         4.9376216533       19.7600736308       16.0341438772
  C         5.1996092079       21.0791184559       16.3060285022
  N         4.9206682768        8.9484144516        5.2238459481
  C         5.1974106065       10.2652563892        5.4909975439
  N        17.2862720273        3.0505663567       16.0350243086
  C        17.0212553296        1.7318154909       16.3033291907
  N        17.3247287969       13.8666184189        5.2334823308
  C        17.0499200687       12.5499017533        5.5030732017
  N         2.7929352504       16.0546952008       17.5988566652
  C         1.4740461799       16.3175952968       17.3283828755
  N        13.6113350173       16.0265494574        6.7673866769
  C        12.2946921727       16.3020544899        6.4978813099
  N        19.4773315700       16.0268529077        5.2203196687
  C        20.7944708383       16.3057485927        5.4850519281
  N         8.6523831241       16.0514781906       16.0364284168
  C         9.9707576971       16.3155836561       16.3077806360
  N        19.4361377592        6.7613449185       17.6003155974
  C        20.7549962923        6.5016069355       17.3261256782
  N         8.6255627087        6.7822658070        6.7709480362
  C         9.9425515315        6.5080486503        6.5023763882
  N         2.7566276716        6.7983653701        5.2261103272
  C         1.4395548621        6.5218315479        5.4943065555
  N        13.5804557475        6.7586091385       16.0365097108
  C        12.2620226120        6.4932249351       16.3071179439
  N        15.7264471642        5.1941026198       19.7505262829
  C        15.9960671574        5.4642590026       21.0687049175
  N        15.7602024049       16.0265029748        8.9282869425
  C        16.0327247736       16.2936885730       10.2461590913
  N        15.7755967881       17.5736402942        3.0648027111
  C        16.0439683941       17.3005364009        1.7476959424
  N        15.7394759918        6.7637135283       13.8871850512
  C        16.0117604313        6.4957598326       12.5693701087
  N         6.4610128956        5.2437857385        3.0631227926
  C         6.1898985962        5.5145598669        1.7461246451
  N         6.4992448004       16.0552564144       13.8829899925
  C         6.2299052151       16.3258592377       12.5652925235
  N         6.5069034135       17.6167214541       19.7453083546
  C         6.2383023776       17.3475494809       21.0636634408
  N         6.4732808628        6.7881051566        8.9277475468
  C         6.2012272406        6.5197556295       10.2454706879
  N        19.4735425930       17.5846718814        6.7743696886
  C        20.7917492805       17.3219442311        6.5003474335
  N         8.6571355412       17.6098580155       17.5898974065
  C         9.9741486721       17.3323175608       17.3224956156
  N         2.7614869551        5.2393070332        6.7785337165
  C         1.4431365528        5.5046519769        6.5085663773
  N        13.5757190720        5.2012037806       17.5914392891
  C        12.2586573298        5.4771741300       17.3226406319
  N         2.7859547498       17.6069689975       16.0409087189
  C         1.4694428805       17.3320584570       16.3117389686
  N        13.6170824285       17.5817994941        5.2109883603
  C        12.2983034774       17.3178558428        5.4823465446
  N        19.4426796869        5.2046349503       16.0459028238
  C        20.7592421906        5.4850663148       16.3113927041
  N         8.6215259831        5.2295329065        5.2128362860
  C         9.9401223097        5.4934294059        5.4857270920
  N         6.4960055312       19.7671494229       17.5877195631
  C         6.2162669577       21.0837171556       17.3208750149
  N         6.4789330078        8.9433676442        6.7768458745
  C         6.2140926760       10.2621037902        6.5056946775
  N         6.4645706349        3.0846253928        5.2104763491
  C         6.2011170457        1.7661622009        5.4824987420
  N         6.4970363722       13.8991561233       16.0358391300
  C         6.2213003736       12.5821616833       16.3048296020
  N        15.7299013221        3.0434964037       17.5896120908
  C        16.0055696545        1.7270718849       17.3189088228
  N        15.7645513036       13.8717854584        6.7840558340
  C        16.0315905112       12.5532942553        6.5160559128
  N        15.7657327131       19.7319099910        5.2166236942
  C        16.0261080798       21.0501700295        5.4917985047
  N        15.7329521256        8.9143544374       16.0418878623
  C        16.0102002407       10.2311080393       16.3088922933
  N        17.2788385824        6.7534506815       19.7508501855
  C        17.0097918386        6.4819522507       21.0683375398
  N        17.3193865827       17.5796889086        8.9291331652
  C        17.0503433847       17.3075462019       10.2467278709
  N         4.9059002135        6.7998402585        3.0659212404
  C         5.1745581926        6.5305684657        1.7473024612
  N         4.9406533319       17.6078404389       13.8831657342
  C         5.2126158942       17.3399032752       12.5653250681
  N        17.3246462918       16.0113509703        3.0668660281
  C        17.0556471117       16.2809119424        1.7483435010
  N        17.2959284593        5.2081994350       13.8874096271
  C        17.0280374429        5.4805321453       12.5694932680
  N         4.9517519587       16.0604882114       19.7475671438
  C         5.2225983092       16.3318588585       21.0646206487
  N         4.9160227382        5.2338398288        8.9275045480
  C         5.1844866879        5.5050877106       10.2452494229
  N        17.3148084073       19.7345286788       16.0367987042
  C        17.0360950375       21.0510558747       16.3039112561
  N        17.2965308517        8.9117783483        5.2238478634
  C        17.0354425018       10.2297425563        5.4984598430
  N         4.9074267300        3.0779405681       16.0403189308
  C         5.1838387573        1.7608914610       16.3088977877
  N         4.9449868017       13.9045046037        5.2130855660
  C         5.2087915553       12.5863103998        5.4860731313
  N        17.2919608660        3.0533094868        6.7836332967
  C        17.0271221025        1.7345625260        6.5132046216
  N        17.3183721023       13.8644765207       17.5885552011
  C        17.0410386041       12.5479725129       17.3205451012
  N         4.9376429269       19.7621281824        6.7750063000
  C         5.1996991022       21.0809531296        6.5020970420
  N         4.9175831351        8.9482719684       17.5892522152
  C         5.1939138789       10.2648099811       17.3195980867
  N        19.4393382180        6.7655869431        5.2155602735
  C        20.7580888836        6.5056267845        5.4896636212
  N         8.6242542080        6.7803355837       16.0401769302
  C         9.9409012040        6.5042546591       16.3089376879
  N         2.7536648603        6.7982526215       17.5874624476
  C         1.4366486088        6.5202341522       17.3199560952
  N        13.5817365398        6.7656017339        6.7788930742
  C        12.2636948314        6.4997552362        6.5066341847
  N         2.7946295431       16.0554289733        5.2071777882
  C         1.4759568966       16.3195223922        5.4787158863
  N        13.6084763982       16.0261790428       16.0414785940
  C        12.2918235985       16.3027246586       16.3101181002
  N        19.4760444486       16.0227827993       17.5928888831
  C        20.7927633633       16.3019188964       17.3258383816
  N         8.6553062762       16.0507631796        6.7738649265
  C         9.9736037626       16.3142727773        6.5012840454
  N         6.5097595671       17.6174899424        3.0641397066
  C         6.2402084686       17.3483388118        1.7456655958
  N         6.4710563018        6.7883619284       13.8849321653
  C         6.2001379530        6.5199196836       12.5669810359
  N         6.4580684317        5.2414878036       19.7482745427
  C         6.1886394767        5.5132515393       21.0654932584
  N         6.5000692110       16.0552634050        8.9265761162
  C         6.2303562440       16.3259190179       10.2441523617
  N        15.7720908195       17.5726895797       19.7495895885
  C        16.0420064486       17.3005197963       21.0667861642
  N        15.7384509663        6.7633613177        8.9305537090
  C        16.0104865776        6.4947822249       10.2479114341
  N        15.7290910394        5.1961149578        3.0697345424
  C        15.9973317358        5.4651770631        1.7510300177
  N        15.7616160382       16.0221273175       13.8858046176
  C        16.0332333791       16.2914482177       12.5680207030
 Zn        14.4635905478       14.7315015999       14.7488944909
 Br        13.1482491254       13.4209719139       13.4314550806
 Zn        14.4399609120        3.9042165677        3.9408556996
 Br        13.1207839711        2.5928213130        2.6270382346
 Zn         3.6623623206       14.7677966306        3.9130468536
 Br         2.3451937891       13.4558841776        2.5982444482
 Zn         3.6210856387        3.9440922336       14.7459029422
 Br         2.3065473346        2.6298347068       13.4301402184
 Zn         7.7699338946        8.0724198714       14.7488466784
 Br         9.0858107286        9.3854329851       13.4332035144
 Zn         7.7959996790       18.9101724664        3.9374190200
 Br         9.1149763224       20.2222104919        2.6237659829
 Zn        18.5728384862        8.0524392938        3.9197994626
 Br        19.8903078056        9.3617104899        2.6028821875
 Zn        18.6085701944       18.8747006014       14.7475434945
 Br        19.9236538573       20.1877044901       13.4320435852
 Zn         7.7904915487       14.7618589320        8.0646063769
 Br         9.0991760933       13.4415495795        9.3798581658
 Zn         7.7474501153        3.9455383621       18.8906924063
 Br         9.0593606925        2.6307919424       20.2088900838
 Zn        18.6142595549       14.7212129897       18.8802032379
 Br        19.9297924819       13.4053789824       20.1923295322
 Zn        18.5917038067        3.9182483149        8.0660738870
 Br        19.9038620526        2.6029932365        9.3823146079
 Zn        14.4482103762        8.0583555162        8.0689821742
 Br        13.1439577067        9.3790190286        9.3876614253
 Zn        14.4808142332       18.8689276590       18.8908958126
 Br        13.1665461391       20.1811827273       20.2086374140
 Zn         3.6182857082        8.0942179372       18.8789750304
 Br         2.3020627335        9.4101133691       20.1905097794
 Zn         3.6435623256       18.8941448479        8.0635345271
 Br         2.3309750670       20.2105089855        9.3787094094
 Zn        14.4641222081       14.7348011374        8.0650772275
 Br        13.1480620773       13.4238430798        9.3812972047
 Zn        14.4371175909        3.9019940067       18.8820904216
 Br        13.1164364827        2.5902850910       20.1935055982
 Zn         3.6597712063       14.7672181035       18.8890935268
 Br         2.3431327956       13.4565020949       20.2063940144
 Zn         3.6236575185        3.9431021294        8.0645076790
 Br         2.3098583234        2.6272661930        9.3791431899
 Zn         7.7722778597        8.0732702873        8.0647200209
 Br         9.0884138308        9.3859458987        9.3802012324
 Zn         7.7944049583       18.9095557230       18.8778207370
 Br         9.1133442064       20.2225377507       20.1895563812
 Zn        18.5696067046        8.0499834145       18.8925184841
 Br        19.8864483713        9.3592583679       20.2107731326
 Zn        18.6099429860       18.8761655203        8.0665693751
 Br        19.9239557607       20.1892849542        9.3831340944
 Zn        14.4439769023        8.0548259994       14.7483133564
 Br        13.1344972597        9.3718657625       13.4311408025
 Zn        14.4850935399       18.8715272264        3.9163121970
 Br        13.1700790379       20.1840205591        2.6002525823
 Zn         3.6202544044        8.0947312229        3.9380130235
 Br         2.3055901307        9.4093889812        2.6229910299
 Zn         3.6421646838       18.8934787270       14.7450556332
 Br         2.3311276189       20.2111632981       13.4295792996
 Zn         7.7897614393       14.7622054489       14.7438615198
 Br         9.0998434766       13.4423882960       13.4295846491
 Zn         7.7514065004        3.9476477783        3.9144872402
 Br         9.0655715354        2.6322930730        2.5999978355
 Zn        18.6154337732       14.7218686359        3.9390529658
 Br        19.9312496150       13.4061683929        2.6263339802
 Zn        18.5851727719        3.9112742899       14.7525818491
 Br        19.8993307686        2.5982946634       13.4359557383
 Zn         5.6843984655        6.0119942140       16.8187080183
 Zn        16.5470562884       16.7963751605       16.8190945831
 Zn        16.5081827194        5.9859635776        6.0024673204
 Zn         5.7280644043       16.8317350853        5.9980895393
 Zn         5.6873672221        6.0120658411        5.9987454042
 Zn        16.5481683612       16.8020937044        6.0003479196
 Zn         5.7271808713       16.8317424901       16.8173711466
 Zn        16.5049000824        5.9772044231       16.8205662265
  N         3.5027433815        6.0217924174       16.8101525754
  N        14.3269376874        5.9834035765        6.0039419270
  N        18.7265848846       16.7983074849       16.8150682122
  N         7.9106928427       16.8341795450        5.9998156745
  N        18.6957406602        5.9837634020        5.9921484723
  N         7.8741316025        6.0076705946       16.8199147012
  N         3.5390196299       16.8334299171        5.9869086119
  N        14.3583931826       16.7996339930       16.8208896378
  N        16.5099919744        3.7974118620        6.0076232692
  N        16.5419736804       14.6140680798       16.8120047921
  N        16.5441750210       18.9842039894       16.8183296669
  N        16.5127836774        8.1672586882        5.9974154301
  N         5.7221487522       19.0183917435        6.0012419785
  N         5.6941169085        8.1981861858       16.8131087498
  N         5.6804720708        3.8274427806       16.8204118290
  N         5.7244467805       14.6492946439        5.9911572712
  N         5.7319891800       16.8387729093        3.8100586529
  N         5.6926381103        6.0108318672       14.6313569339
  N        16.5472193252       16.7929175629       19.0020678007
  N        16.5189096455        5.9881010517        8.1836989831
  N         5.6806607781        6.0189893003       19.0009588885
  N         5.7203267939       16.8310050970        8.1797336346
  N        16.5053337123        5.9771868685        3.8148877733
  N        16.5400717901       16.7995565202       14.6326800232
  N         5.6848338832        3.8288040257        5.9886937668
  N         5.7234299519       14.6483949297       16.8155529733
  N        16.5461867484       18.9872602974        5.9936063019
  N        16.5058618497        8.1647917956       16.8217802574
  N         5.7213568740       19.0170502522       16.8095096517
  N         5.6965528509        8.1991344670        6.0013152553
  N        16.5056324386        3.7937663091       16.8130576565
  N        16.5462670086       14.6160670953        6.0080403005
  N         3.5365735581       16.8337013355       16.8196994686
  N        14.3610260091       16.8013890198        5.9889563034
  N        18.7289839876       16.8013657271        6.0000798586
  N         7.9082516017       16.8339077578       16.8120704576
  N        18.6925387960        5.9777722332       16.8254301423
  N         7.8765657399        6.0086722144        5.9909666669
  N         3.5056508493        6.0212992459        6.0027178116
  N        14.3244509019        5.9772714414       16.8135302359
  N        16.5025013158        5.9742363311       19.0040520675
  N        16.5388806281       16.8044163181        8.1822157369
  N        16.5502390029       16.7937138198        3.8126657606
  N        16.5162350874        5.9845598791       14.6339895655
  N         5.6842278893        6.0211789720        3.8113319872
  N         5.7193007189       16.8307846755       14.6299026319
  N         5.7287893463       16.8379702190       18.9997803281
  N         5.6955615576        6.0101346182        8.1810133655
  C        11.1289136947       15.7592789714       15.7592474374
  H        11.1251778669       14.9836657277       14.9837931276
  C        11.0999110342        4.9385019363        4.9392483791
  H        11.0983850025        4.1629563687        4.1638037233
  C         0.3169651274       15.7640961534        4.9310669781
  H         0.3198968957       14.9895760766        4.1546164086
  C         0.2825823421        4.9442566350       15.7588817751
  H         0.2871044321        4.1685938690       14.9834822596
  C        11.1035879172        7.0480666342       15.7578360502
  H        11.1066692084        7.8233309545       14.9819993360
  C        11.1394990147       17.8746258339        4.9354283082
  H        11.1426652422       18.6508177418        4.1606414091
  C         0.2761469668        7.0642341819        4.9430892766
  H         0.2716112425        7.8401015091        4.1679763266
  C         0.3060475537       17.8758580273       15.7622334295
  H         0.3012649237       18.6517694533       14.9870562430
  C        11.1321141434       15.7576504568        7.0485568047
  H        11.1290427726       14.9816444710        7.8236386931
  C        11.0955868269        4.9340174998       17.8739942878
  H        11.0919868069        4.1590801958       18.6500262320
  C         0.3164302471       15.7605214073       17.8772851086
  H         0.3216194485       14.9854577497       18.6531496706
  C         0.2852940700        4.9480626387        7.0572200698
  H         0.2895460890        4.1724266503        7.8326499038
  C        11.1041086938        7.0537485107        7.0541446040
  H        11.1053544103        7.8293243725        7.8296601540
  C        11.1374004522       17.8747985195       17.8739851021
  H        11.1413120695       18.6503164177       18.6494223172
  C         0.2729363669        7.0618475749       17.8713598011
  H         0.2681250283        7.8386259288       18.6455635652
  C         0.3105569553       17.8778045680        7.0476621898
  H         0.3078752721       18.6533370117        7.8232324605
  C        15.4669945766       11.3940303303       15.7578032114
  H        14.6911822403       11.3979072087       14.9826417218
  C        15.4680473863        0.5685111574        4.9456975250
  H        14.6922470132        0.5649727724        4.1703865767
  C         4.6533854542       11.4272801816        4.9386923648
  H         3.8778625296       11.4295954367        4.1631092344
  C         4.6417481569        0.5970570306       15.7581599161
  H         3.8657857278        0.5922018637       14.9831123221
  C        15.4748072720       11.3951166800        7.0636854033
  H        14.6983960472       11.3978328876        7.8382333439
  C        15.4634753079        0.5635124266       17.8694989124
  H        14.6880141543        0.5579467291       18.6450819139
  C         4.6498437801       11.4277918898       17.8696243059
  H         3.8740443808       11.4317752617       18.6449262769
  C         4.6420428778        0.5993781455        7.0488837380
  H         3.8655170604        0.5955042938        7.8233566068
  C         6.7658345905       11.4188447897       15.7554095974
  H         7.5417142750       11.4151492346       14.9802986910
  C         6.7586929945        0.6078710944        4.9354633378
  H         7.5344188181        0.6119288135        4.1601216483
  C        17.5947145535       11.3875371059        4.9528299597
  H        18.3714075378       11.3838886011        4.1784352910
  C        17.5773166391        0.5746669913       15.7524820317
  H        18.3519077692        0.5799536557       14.9761121721
  C         6.7683591738       11.4213221423        7.0539670549
  H         7.5436657595       11.4192310417        7.8296408297
  C         6.7566116471        0.6072508976       17.8733539044
  H         7.5314782415        0.6124545950       18.6495483280
  C        17.5837718437       11.3851768617       17.8720411441
  H        18.3596186509       11.3808996886       18.6472001740
  C        17.5825980378        0.5759838600        7.0615688747
  H        18.3573334496        0.5791045767        7.8378084490
  C        15.4829450990       15.7434252557       11.4067397002
  H        14.7062016941       14.9691761892       11.4060507322
  C        15.4481293032        4.9140595919        0.5903869356
  H        14.6735561485        4.1376417895        0.5912144220
  C         4.6735145013       15.7827702941        0.5855143800
  H         3.8975514984       15.0076232900        0.5865721679
  C         4.6331247076        4.9565825103       11.4056923854
  H         3.8566420802        4.1820008368       11.4053462025
  C         6.7808817173       15.7771523808       11.4048303858
  H         7.5569823058       15.0021944938       11.4049245726
  C         6.7389470388        4.9640569016        0.5858218336
  H         7.5142159242        4.1881839026        0.5857493396
  C        17.6026445650       15.7295161494        0.5868580281
  H        18.3759144593       14.9518076600        0.5861037054
  C        17.5791536167        4.9327681169       11.4084814927
  H        18.3548373646        4.1574596069       11.4081626106
  C        15.4617740355        7.0450430826       11.4085999424
  H        14.6862326431        7.8204932863       11.4082750813
  C        15.4950574821       17.8519575020        0.5876646697
  H        14.7221088659       18.6300404862        0.5884851691
  C         4.6247028988        7.0800076063        0.5862941907
  H         3.8495372162        7.8558156635        0.5863404945
  C         4.6629208183       17.8894811809       11.4045690135
  H         3.8868208934       18.6644216753       11.4044168612
  C         6.7505518921        7.0693468811       11.4064454431
  H         7.5268923939        7.8440432929       11.4067416593
  C         6.7892251009       17.8973734281        0.5841129536
  H         7.5654629293       18.6721208068        0.5830687697
  C        17.5592299860        7.0328304619        0.5884059212
  H        18.3340119493        7.8091080316        0.5876227997
  C        17.6015178759       17.8547107970       11.4079784503
  H        18.3785482756       18.6287007386       11.4085015980
 Xe        18.4834080847        9.4696664951        9.5026028617
