     409
 i =      56, E =    -5133.8804599129
  N         2.7459107029        5.2375958319       16.0341915901
  C         1.4263090511        5.4998348713       16.3012743828
  N        13.5504315503        5.2009685470        5.2196217355
  C        12.2340304607        5.4796192901        5.4875206085
  N        19.4646268838       17.5751712749       16.0288966666
  C        20.7832110040       17.3154230757       16.3040208990
  N         8.6424743003       17.6086652803        5.2235318049
  C         9.9592195687       17.3270321462        5.4874572507
  N        19.4188958301        5.1956845236        6.7651643838
  C        20.7352012844        5.4806506657        6.5034248426
  N         8.6030418507        5.2319558698       17.5958928069
  C         9.9214254954        5.4920518285       17.3201666811
  N         2.7702965236       17.6077277393        6.7684613243
  C         1.4538138458       17.3332742287        6.4967965455
  N        13.6115447537       17.5694142258       17.5899436154
  C        12.2924375990       17.3093320664       17.3185887063
  N        15.7007207905        3.0346733353        5.2172637085
  C        15.9792212501        1.7175577881        5.4837642193
  N        15.7542193702       13.8611243685       16.0268354324
  C        16.0178897749       12.5425597088       16.2978942944
  N        15.7580260120       19.7164277874       17.5858735846
  C        16.0135549618       21.0354692707       17.3105382130
  N        15.7241811255        8.9049836557        6.7668828383
  C        16.0027118336       10.2213782602        6.5005358363
  N         6.4810164755       19.7700110093        5.2254077841
  C         6.1972632450       21.0865624706        5.4887180660
  N         6.4583563176        8.9422763111       16.0356130752
  C         6.1959744324       10.2615542149       16.3054652289
  N         6.4496031780        3.0851136164       17.6036849154
  C         6.1892951508        1.7661607443       17.3313934258
  N         6.4781366675       13.9010906098        6.7691952878
  C         6.2014836163       12.5843461300        6.5004882450
  N         4.9360551687       16.0666926454        3.0625263146
  C         5.2093406282       16.3371371435        1.7459109394
  N         4.8966773151        5.2314834318       13.8850587699
  C         5.1625486468        5.5036615608       12.5669312457
  N        17.3202283787       16.0029433295       19.7402052181
  C        17.0489083015       16.2713114863       21.0582284651
  N        17.2704344027        5.1962684269        8.9194641600
  C        17.0039680789        5.4689702414       10.2370662927
  N         4.8841641186        6.8013767363       19.7456198337
  C         5.1511419145        6.5317208763       21.0644753755
  N         4.9265612155       17.6079855586        8.9278470656
  C         5.2008640395       17.3409442314       10.2454250023
  N        17.2539099454        6.7397875413        3.0568691178
  C        16.9832900332        6.4693079508        1.7397721818
  N        17.3142363436       17.5664923180       13.8749355393
  C        17.0427481335       17.2960956388       12.5575517515
  N         4.8823419956        3.0802096487        6.7652144400
  C         5.1595174034        1.7633960792        6.4963956421
  N         4.9351495305       13.9068534179       17.5939266246
  C         5.1963863252       12.5881606533       17.3218824361
  N        17.2926317144       19.7246485162        6.7618813970
  C        17.0130168405       21.0407530029        6.4940411137
  N        17.2753208111        8.8981064197       17.5918505209
  C        17.0162945969       10.2169394592       17.3178354208
  N         4.9345438299       19.7603983293       16.0379363085
  C         5.1944349225       21.0793827201       16.3112636249
  N         4.8924844908        8.9501017856        5.2222547503
  C         5.1712966596       10.2668174372        5.4890788987
  N        17.2682833400        3.0417318922       16.0218877696
  C        17.0056501913        1.7226748394       16.2910722488
  N        17.3090312167       13.8556642716        5.2220340403
  C        17.0324802796       12.5386388186        5.4895733716
  N         2.7868745562       16.0580591870       17.6001230873
  C         1.4683014743       16.3193207316       17.3272891938
  N        13.5925929246       16.0126845268        6.7630327432
  C        12.2759914696       16.2909314599        6.4956701728
  N        19.4620745205       16.0204132536        5.2161864640
  C        20.7782628372       16.3017151639        5.4822924688
  N         8.6464199020       16.0489814322       16.0339359068
  C         9.9653783528       16.3115914053       16.3033475240
  N        19.4181838436        6.7476818877       17.5897322884
  C        20.7374149238        6.4919383689       17.3159068428
  N         8.6001989767        6.7831938615        6.7705662517
  C         9.9170357534        6.5079769737        6.5008137602
  N         2.7279468926        6.8004120101        5.2303535116
  C         1.4113178384        6.5212308405        5.4975705334
  N        13.5657613502        6.7543654642       16.0249308443
  C        12.2467098304        6.4911749241       16.2968555553
  N        15.7047480916        5.1831959752       19.7390347013
  C        15.9709673441        5.4538811436       21.0576627878
  N        15.7461002280       16.0156004768        8.9203814496
  C        16.0206587311       16.2831767728       10.2376086016
  N        15.7568004838       17.5564486984        3.0547792247
  C        16.0301137934       17.2861174973        1.7381429642
  N        15.7241089355        6.7569883848       13.8765857758
  C        15.9935301539        6.4877897392       12.5586645168
  N         6.4333773096        5.2461607560        3.0643209076
  C         6.1630134285        5.5169408482        1.7472528235
  N         6.4924426282       16.0560471619       13.8828757380
  C         6.2214355194       16.3269757947       12.5655562102
  N         6.5027536042       17.6156832704       19.7471537990
  C         6.2306425716       17.3486188391       21.0654410001
  N         6.4462515251        6.7878968137        8.9269455438
  C         6.1755460260        6.5197140267       10.2447792269
  N        19.4537886813       17.5795452398        6.7685144834
  C        20.7727913962       17.3185033323        6.4968840683
  N         8.6546839426       17.6061598642       17.5884739501
  C         9.9711468397       17.3276336240       17.3187566442
  N         2.7347810550        5.2417243526        6.7826865512
  C         1.4160074480        5.5042374215        6.5118990119
  N        13.5594080799        5.1964272439       17.5794665190
  C        12.2427591326        5.4750998411       17.3123496730
  N         2.7809423343       17.6102376040       16.0426900514
  C         1.4642191459       17.3337077517       16.3106995540
  N        13.5984330504       17.5650514010        5.2043039700
  C        12.2800273412       17.3055140159        5.4790324602
  N        19.4286867576        5.1940349981       16.0317221323
  C        20.7447463913        5.4768647937       16.2996223416
  N         8.5943077298        5.2305331657        5.2120221743
  C         9.9128366062        5.4935196837        5.4840304529
  N         6.4944213190       19.7679084506       17.5900744440
  C         6.2119824698       21.0846266777       17.3252747431
  N         6.4510609294        8.9439022301        6.7751687545
  C         6.1880839334       10.2628102418        6.5036756251
  N         6.4373558655        3.0865484037        5.2081761845
  C         6.1752243771        1.7679697946        5.4807088088
  N         6.4890344846       13.8997290402       16.0362299541
  C         6.2113537831       12.5831447323       16.3055083206
  N        15.7114518707        3.0329006715       17.5773437117
  C        15.9901922634        1.7166119572       17.3071281431
  N        15.7493321177       13.8601327225        6.7741088930
  C        16.0154746334       12.5419456199        6.5040225578
  N        15.7408637555       19.7164237619        5.2022159126
  C        15.9990164843       21.0356695998        5.4767646040
  N        15.7235720845        8.9051205896       16.0333989170
  C        16.0020414723       10.2215668248       16.3009921515
  N        17.2613662704        6.7381136952       19.7423647175
  C        16.9874248369        6.4687708660       21.0591647149
  N        17.3030486904       17.5708804666        8.9184666951
  C        17.0372421879       17.2980240425       10.2363219691
  N         4.8754034852        6.8003866190        3.0659067266
  C         5.1463471805        6.5317059392        1.7473078628
  N         4.9352781041       17.6101741837       13.8852427458
  C         5.2050267865       17.3418964954       12.5669988126
  N        17.3121081448       16.0004061595        3.0592430999
  C        17.0451058946       16.2697474294        1.7403014940
  N        17.2756662584        5.1978255850       13.8752673439
  C        17.0064062748        5.4694243946       12.5578391352
  N         4.9444584376       16.0622805080       19.7478327395
  C         5.2131510717       16.3346787326       21.0651151636
  N         4.8907329505        5.2319882815        8.9280539669
  C         5.1598130231        5.5039807705       10.2455994803
  N        17.3081356780       19.7253609504       16.0253064954
  C        17.0265352369       21.0415480047       16.2923903711
  N        17.2748530240        8.8988886412        5.2071512205
  C        17.0162953385       10.2175100567        5.4830075436
  N         4.8959241521        3.0774419751       16.0465652890
  C         5.1740961414        1.7609072040       16.3153548228
  N         4.9247946000       13.9067634093        5.2104028195
  C         5.1868460422       12.5882287290        5.4837073753
  N        17.2602235981        3.0400079576        6.7696507145
  C        16.9962357318        1.7216242597        6.4981920270
  N        17.3135607846       13.8547279105       17.5799930820
  C        17.0348977947       12.5380824868       17.3124417283
  N         4.9203457504       19.7623711395        6.7763167544
  C         5.1792309700       21.0815600653        6.5021318354
  N         4.9000208014        8.9507268731       17.5889757569
  C         5.1792644166       10.2670270617       17.3201752888
  N        19.4121227095        6.7492769714        5.2072722475
  C        20.7304946876        6.4955620992        5.4870372886
  N         8.6076154112        6.7827960469       16.0356131035
  C         9.9247233549        6.5054740203       16.3023104124
  N         2.7348384642        6.7980395452       17.5854985009
  C         1.4188022604        6.5175662992       17.3149846530
  N        13.5582902340        6.7598565292        6.7725050955
  C        12.2389019149        6.4965121453        6.5021094245
  N         2.7776636843       16.0573530042        5.2081831983
  C         1.4589843496       16.3198600686        5.4790465337
  N        13.6025951532       16.0168762785       16.0315464734
  C        12.2864330052       16.2950649205       16.3016701122
  N        19.4709295089       16.0164904048       17.5829928750
  C        20.7874476940       16.2987938935       17.3190102981
  N         8.6367172992       16.0485337208        6.7742160486
  C         9.9552416207       16.3093466347        6.5010676118
  N         6.4939294326       17.6206905830        3.0669224220
  C         6.2266276132       17.3512704325        1.7479314312
  N         6.4506618133        6.7880191323       13.8832365714
  C         6.1777924001        6.5197488108       12.5658406598
  N         6.4418560053        5.2466830690       19.7496728209
  C         6.1677001361        5.5167886551       21.0664096510
  N         6.4844330555       16.0542107433        8.9264460836
  C         6.2175158132       16.3261816884       10.2443289015
  N        15.7670892606       17.5609805974       19.7402240217
  C        16.0347693386       17.2884549533       21.0575613438
  N        15.7197526813        6.7568358760        8.9203401620
  C        15.9914917712        6.4877931230       10.2377069311
  N        15.6960733128        5.1859847718        3.0585555557
  C        15.9663479380        5.4548599292        1.7400050816
  N        15.7563176413       16.0126278462       13.8768062944
  C        16.0257349116       16.2817548705       12.5588296894
 Zn        14.4575533530       14.7228007449       14.7360507860
 Br        13.1391757834       13.4126354855       13.4220408853
 Zn        14.4011825134        3.8980598344        3.9317211099
 Br        13.0833656106        2.5859370910        2.6176276945
 Zn         3.6388895575       14.7711847629        3.9109054471
 Br         2.3246647084       13.4599879617        2.5937378185
 Zn         3.6102855181        3.9403039509       14.7515421590
 Br         2.2943736001        2.6256681547       13.4365079095
 Zn         7.7454726662        8.0736826956       14.7436001794
 Br         9.0646932601        9.3843653214       13.4283954974
 Zn         7.7842158329       18.9125284255        3.9409777589
 Br         9.1017929858       20.2251286271        2.6273137093
 Zn        18.5527637437        8.0314031519        3.9049265601
 Br        19.8682554657        9.3431345277        2.5888388895
 Zn        18.6033493185       18.8672915227       14.7319471503
 Br        19.9187809791       20.1796734349       13.4173736735
 Zn         7.7738888400       14.7595254638        8.0635235856
 Br         9.0813575492       13.4370052718        9.3774487470
 Zn         7.7370080194        3.9510848532       18.8937480179
 Br         9.0474465785        2.6371767857       20.2135028767
 Zn        18.6114582621       14.7145729517       18.8721938643
 Br        19.9265475735       13.3954545853       20.1813967974
 Zn        18.5581580178        3.9002787787        8.0574178314
 Br        19.8737719605        2.5861832483        9.3707872883
 Zn        14.4313987395        8.0531675905        8.0603535568
 Br        13.1206625232        9.3705736149        9.3760994523
 Zn        14.4762864901       18.8558887026       18.8836930754
 Br        13.1640625157       20.1709291678       20.2008613288
 Zn         3.5961107838        8.0964636584       18.8767124601
 Br         2.2821721255        9.4141751314       20.1880789926
 Zn         3.6280960559       18.8938379580        8.0655441463
 Br         2.3155205681       20.2094353410        9.3819281525
 Zn        14.4505796003       14.7221042084        8.0602672729
 Br        13.1331427765       13.4128301237        9.3762905762
 Zn        14.4136527074        3.8943953398       18.8702399086
 Br        13.0955101938        2.5787447859       20.1795884990
 Zn         3.6496700117       14.7693521213       18.8896074841
 Br         2.3346274239       13.4590954786       20.2083756991
 Zn         3.5968580286        3.9428280967        8.0646677824
 Br         2.2830676763        2.6284270055        9.3809122092
 Zn         7.7410477481        8.0742749836        8.0638876459
 Br         9.0622465864        9.3844626247        9.3773177319
 Zn         7.7933900920       18.9049956069       18.8782892565
 Br         9.1137201649       20.2185449348       20.1884738641
 Zn        18.5566123473        8.0308310788       18.8870165476
 Br        19.8715385372        9.3419737635       20.2054339852
 Zn        18.5880659262       18.8731269363        8.0576283956
 Br        19.9023267319       20.1878535410        9.3716013073
 Zn        14.4345542582        8.0512168054       14.7361704435
 Br        13.1211980550        9.3683394877       13.4229696950
 Zn        14.4572966736       18.8474370887        3.9032995153
 Br        13.1474116446       20.1643346686        2.5866349896
 Zn         3.5861444315        8.0953071929        3.9394275904
 Br         2.2745486617        9.4127311623        2.6248366392
 Zn         3.6380840749       18.8966079256       14.7491157660
 Br         2.3277350364       20.2148385563       13.4332653880
 Zn         7.7831549054       14.7610138621       14.7417288532
 Br         9.0896449407       13.4390873605       13.4264123906
 Zn         7.7283843357        3.9493263072        3.9132128780
 Br         9.0366292441        2.6315194220        2.5964413948
 Zn        18.6067163777       14.7154548670        3.9334937534
 Br        19.9199546213       13.3970706969        2.6208458928
 Zn        18.5648156022        3.9026330988       14.7339710448
 Br        19.8816884628        2.5899752822       13.4201261407
 Zn         5.6737145118        6.0134877368       16.8201541056
 Zn        16.5441376631       16.7829194559       16.8101297628
 Zn        16.4880132184        5.9644480996        5.9926203908
 Zn         5.7075062062       16.8323645513        5.9985942066
 Zn         5.6662222345        6.0128823409        5.9981660014
 Zn        16.5275735379       16.7838499783        5.9929439575
 Zn         5.7239527536       16.8321797835       16.8184062866
 Zn        16.4938299206        5.9627122655       16.8120113774
  N         3.4870814027        6.0218015925       16.8107078605
  N        14.3009846889        5.9762342653        5.9966028240
  N        18.7215845613       16.7898521093       16.8028035350
  N         7.8928184702       16.8337002753        6.0014450866
  N        18.6689290159        5.9644567544        5.9811914646
  N         7.8584586003        6.0118874729       16.8181959595
  N         3.5209441500       16.8353910304        5.9887221235
  N        14.3541176849       16.7886540104       16.8112918164
  N        16.4769547009        3.7838275500        5.9947232989
  N        16.5376248268       14.6042591097       16.8025614381
  N        16.5397642851       18.9737861520       16.8083509187
  N        16.4942729194        8.1548626860        5.9845878695
  N         5.7070750536       19.0195543197        6.0039499983
  N         5.6749749587        8.1997970375       16.8119026309
  N         5.6685344557        3.8282289616       16.8259701731
  N         5.7051993381       14.6504918589        5.9887173108
  N         5.7132874421       16.8431970047        3.8114546329
  N         5.6755459418        6.0087159629       14.6311818350
  N        16.5446014772       16.7830873638       18.9934394034
  N        16.4936506715        5.9755062153        8.1732903110
  N         5.6649916869        6.0239052463       19.0011521170
  N         5.7034354243       16.8296410549        8.1805672177
  N        16.4754027053        5.9633912044        3.8044990151
  N        16.5357218704       16.7899369467       14.6226872475
  N         5.6564650523        3.8300669168        5.9860194924
  N         5.7163329526       14.6499418750       16.8160781898
  N        16.5223345133       18.9736049642        5.9801969368
  N        16.4945954991        8.1544469496       16.8143362954
  N         5.7201552732       19.0176756290       16.8115374360
  N         5.6676890562        8.2002181686        5.9999993773
  N        16.4862650504        3.7836680752       16.7999519737
  N        16.5316587735       14.6043912961        5.9985747733
  N         3.5312427390       16.8378013706       16.8225037018
  N        14.3423825968       16.7843409186        5.9817375292
  N        18.7112898864       16.7944951866        5.9941493388
  N         7.9041001638       16.8313433540       16.8111887760
  N        18.6768039436        5.9640742385       16.8128995390
  N         7.8503571547        6.0100359819        5.9908440518
  N         3.4782864871        6.0246812875        6.0071903035
  N        14.3090536705        5.9714341807       16.8011948442
  N        16.4852347095        5.9602050247       18.9940402086
  N        16.5222601416       16.7946725008        8.1729214056
  N        16.5327166224       16.7788838024        3.8038625778
  N        16.4996187959        5.9765245665       14.6229334493
  N         5.6546084027        6.0225114891        3.8118365731
  N         5.7141827749       16.8323340096       14.6308720751
  N         5.7245438305       16.8374893080       19.0009022064
  N         5.6690393078        6.0088953504        8.1807669813
  C        11.1217649940       15.7539331527       15.7523634937
  H        11.1152840056       14.9787003846       14.9765606111
  C        11.0709906713        4.9369875099        4.9359757127
  H        11.0671479286        4.1614427222        4.1604553730
  C         0.3020575074       15.7620610206        4.9298517235
  H         0.3078530811       14.9874565012        4.1534364388
  C         0.2710992036        4.9393324030       15.7502699166
  H         0.2802894629        4.1640063983       14.9746225282
  C        11.0877966009        7.0472115247       15.7492761654
  H        11.0907201137        7.8221931038       14.9732376879
  C        11.1225977272       17.8662359747        4.9335747120
  H        11.1272707634       18.6421915663        4.1584898708
  C         0.2474608516        7.0596524665        4.9439263635
  H         0.2415790574        7.8357797967        4.1690058059
  C         0.3010924766       17.8751452684       15.7582714335
  H         0.2968351925       18.6513318590       14.9833857892
  C        11.1126640563       15.7499209876        7.0478333027
  H        11.1082352789       14.9741747143        7.8231157503
  C        11.0799682329        4.9342533119       17.8661868288
  H        11.0765317755        4.1595022382       18.6424695502
  C         0.3107285094       15.7602618769       17.8738250932
  H         0.3156848585       14.9857080151       18.6502618527
  C         0.2590153235        4.9438747435        7.0586118261
  H         0.2644761689        4.1687362062        7.8344707132
  C        11.0804088550        7.0519301414        7.0510240041
  H        11.0836976321        7.8272986727        7.8266479723
  C        11.1360243113       17.8680189974       17.8685161141
  H        11.1427529464       18.6431340786       18.6443781650
  C         0.2525028266        7.0556334993       17.8638589512
  H         0.2430414723        7.8320152003       18.6384755763
  C         0.2899178805       17.8761813603        7.0462274740
  H         0.2843999673       18.6517948840        7.8216521169
  C        15.4604601577       11.3849664700       15.7494179498
  H        14.6848145834       11.3894022849       14.9740145216
  C        15.4388941809        0.5536536610        4.9311339555
  H        14.6628112110        0.5487499180        4.1562194761
  C         4.6294402828       11.4298714426        4.9367068493
  H         3.8538773071       11.4334106552        4.1612254081
  C         4.6335965475        0.5964276958       15.7646601503
  H         3.8569366990        0.5903337787       14.9902898050
  C        15.4599975525       11.3837904108        7.0528464888
  H        14.6842926696       11.3869955398        7.8281800248
  C        15.4519001536        0.5514733351       17.8583219424
  H        14.6767115693        0.5438712451       18.6341306956
  C         4.6380918776       11.4311243160       17.8706984249
  H         3.8626697663       11.4367246547       18.6463340056
  C         4.6182765956        0.5992284426        7.0474262217
  H         3.8415815651        0.5939364302        7.8217400720
  C         6.7533921046       11.4188144064       15.7558735437
  H         7.5290153724       11.4134941104       14.9805058722
  C         6.7354736727        0.6104371711        4.9347885208
  H         7.5110147549        0.6160144564        4.1593091470
  C        17.5743688626       11.3757944740        4.9366848209
  H        18.3489605377       11.3722078544        4.1602875449
  C        17.5640635612        0.5664982812       15.7403126556
  H        18.3380201290        0.5736592858       14.9632629235
  C         6.7444522864       11.4211728711        7.0517172015
  H         7.5198522118       11.4177175208        7.8273234331
  C         6.7499087317        0.6091519678       17.8782979285
  H         7.5250743898        0.6157670953       18.6541409565
  C        17.5756547712       11.3744225702       17.8645671183
  H        18.3511914167       11.3694912319       18.6400164394
  C        17.5535168865        0.5640957792        7.0465287697
  H        18.3281608946        0.5689147061        7.8229196425
  C        15.4733775994       15.7328790982       11.3990825411
  H        14.6969139739       14.9583282378       11.4003184876
  C        15.4181643786        4.9055953716        0.5780372438
  H        14.6418063555        4.1309772800        0.5765319096
  C         4.6604016255       15.7874901848        0.5851712994
  H         3.8833389116       15.0134951364        0.5846005758
  C         4.6107726258        4.9548342840       11.4068556614
  H         3.8349487155        4.1795727930       11.4077335597
  C         6.7699251284       15.7776198557       11.4042278374
  H         7.5453802068       15.0020230366       11.4030725860
  C         6.7150850622        4.9673908188        0.5879162617
  H         7.4907080378        4.1919274698        0.5897013712
  C        17.5958309015       15.7199664270        0.5798105728
  H        18.3701329454       14.9432818685        0.5804341511
  C        17.5535366179        4.9179184656       11.3970014858
  H        18.3261764762        4.1395426915       11.3961435126
  C        15.4445171248        7.0394579878       11.3986693799
  H        14.6705498293        7.8165246324       11.3992636998
  C        15.4833003591       17.8376271652        0.5772960405
  H        14.7088048132       18.6141937326        0.5763456680
  C         4.5986945592        7.0807545949        0.5848525933
  H         3.8229184282        7.8559395067        0.5829838989
  C         4.6535715352       17.8914303625       11.4069752644
  H         3.8780285730       18.6669032515       11.4081505360
  C         6.7258466877        7.0700353162       11.4047980359
  H         7.5018203689        7.8451948238       11.4040433603
  C         6.7792074048       17.8986125678        0.5870432381
  H         7.5563967630       18.6724287479        0.5874528906
  C        17.5353957961        7.0184077402        0.5802761732
  H        18.3119596388        7.7929329122        0.5815073236
  C        17.5910347454       17.8454576529       11.3961295443
  H        18.3678085411       18.6197195701       11.3947040170
 Xe        19.6129686444        9.8070208491        9.8494925386
