     409
 i =      96, E =    -5186.5831622007
  N         2.9142494898        5.2033836394       16.0012315993
  C         1.5963846452        5.4733261511       16.2716815200
  N        13.7224385077        5.1491465626        5.1491448139
  C        12.4057566346        5.4225013960        5.4224989446
  N        19.6009690766       17.5672429727       16.0110904380
  C        20.9189190625       17.2944978939       16.2784062279
  N         8.7677162128       17.5858183193        5.1820172768
  C        10.0884341116       17.3215701094        5.4413309498
  N        19.5928920138        5.2005932366        6.7571534925
  C        20.9109268371        5.4733698392        6.4895374153
  N         8.7677329365        5.1820194964       17.5858194913
  C        10.0884318669        5.4413194609       17.3215809338
  N         2.9146780510       17.5555731289        6.7609781114
  C         1.5967391186       17.2872433630        6.4898185279
  N        13.7303973618       17.6060511029       17.6060558720
  C        12.4141236199       17.3320575663       17.3320558140
  N        15.9000584145        3.0362488366        5.1855897120
  C        16.1664423439        1.7205018211        5.4622805970
  N        15.8817785036       13.8615197014       16.0157632093
  C        16.1535541108       12.5422804345       16.2805840276
  N        15.9027404849       19.7268954440       17.5743258208
  C        16.1677910499       21.0430588015       17.2968900657
  N        15.8652038998        8.8984797885        6.7461457744
  C        16.1370584091       10.2181042061        6.4841099637
  N         6.6043165240       19.7252776134        5.1964511022
  C         6.3350257008       21.0417826996        5.4700209334
  N         6.6472044393        8.9033268156       16.0115617323
  C         6.3769995021       10.2217572375       16.2794437578
  N         6.6100790075        3.0399076753       17.5733915454
  C         6.3431624222        1.7228692282       17.2992358036
  N         6.6426272503       13.8597809639        6.7499209267
  C         6.3710374626       12.5415455501        6.4835887738
  N         5.0660962120       16.0064504117        3.0412038878
  C         5.3345079750       16.2761100342        1.7230696861
  N         5.0786506590        5.2019249810       13.8579131085
  C         5.3497658108        5.4728168133       12.5411485043
  N        17.4459714451       16.0060467207       19.7243665817
  C        17.1755122806       16.2726970640       21.0423718004
  N        17.4298057775        5.1999782822        8.9039454005
  C        17.1590582940        5.4741423679       10.2206587318
  N         5.0603854628        6.7633699647       19.7213787478
  C         5.3265362374        6.4934341810       21.0402844179
  N         5.0807192118       17.5564451953        8.9058980973
  C         5.3543691610       17.2887824081       10.2226939791
  N        17.4418593947        6.7551580133        3.0399660902
  C        17.1733561348        6.4871894100        1.7218562416
  N        17.4448596848       17.5630781280       13.8593566437
  C        17.1748976120       17.2912912402       12.5420912287
  N         5.0569388299        3.0405300491        6.7606802768
  C         5.3250869782        1.7220352258        6.4918679082
  N         5.0821851464       13.8588580338       17.5600409675
  C         5.3547002910       12.5420131046       17.2906541029
  N        17.4445475785       19.7247064432        6.7535735576
  C        17.1743601935       21.0424820036        6.4861362602
  N        17.4439321035        8.9044597899       17.5697075024
  C        17.1745244062       10.2211643530       17.2946888551
  N         5.0682725856       19.7231506546       16.0052130113
  C         5.3353952948       21.0417320401       16.2752500807
  N         5.0769184874        8.9051212269        5.2030985186
  C         5.3493325274       10.2217027753        5.4735250260
  N        17.4426748535        3.0405037238       16.0038889698
  C        17.1741065374        1.7222445000       16.2714529884
  N        17.4310659861       13.8591899569        5.2069827988
  C        17.1596733732       12.5418509611        5.4777808886
  N         2.9182187950       16.0042270460       17.5599630094
  C         1.6003390674       16.2750459723       17.2910360679
  N        13.7370320382       16.0512674927        6.7060024436
  C        12.4177595529       16.3152570771        6.4407008462
  N        19.5962080354       16.0079092003        5.1991005271
  C        20.9145491135       16.2750465801        5.4709979325
  N         8.7884530151       16.0261244177       16.0261239383
  C        10.1027423715       16.3039755533       16.3039794808
  N        19.5974322721        6.7536038957       17.5661976911
  C        20.9151117949        6.4861983283       17.2920967686
  N         8.7810435346        6.7300330446        6.7300307887
  C        10.0949905037        6.4515994397        6.4515954305
  N         2.9108675467        6.7627779635        5.2063788916
  C         1.5929059601        6.4924252387        5.4763307138
  N        13.7370131473        6.7060020271       16.0512732743
  C        12.4177639911        6.4407155166       16.3152551385
  N        15.9015707769        5.1849929990       19.7268937471
  C        16.1670010625        5.4616373500       21.0430320942
  N        15.8807716710       16.0226682871        8.8991791144
  C        16.1531365957       16.2841582366       10.2188567905
  N        15.9003911513       17.5728652895        3.0369348347
  C        16.1667437345       17.2959340770        1.7209906964
  N        15.8670260955        6.7541442449       13.8612680469
  C        16.1379452162        6.4882145141       12.5421270393
  N         6.6004203430        5.1931208087        3.0379502624
  C         6.3332858248        5.4682915094        1.7213164076
  N         6.6475808339       16.0135574330       13.8609923594
  C         6.3767998185       16.2807558891       12.5428124718
  N         6.6127688903       17.5714958997       19.7258135051
  C         6.3443314934       17.2981867392       21.0427776656
  N         6.6423784994        6.7490995398        8.9014912968
  C         6.3712751990        6.4835984593       10.2202228689
  N        19.5974513478       17.5662005255        6.7536102157
  C        20.9151196738       17.2921000735        6.4862098533
  N         8.7717876175       17.5822054570       17.5822054795
  C        10.0925432313       17.3198121453       17.3198184442
  N         2.9108673933        5.2063802202        6.7627785890
  C         1.5929067845        5.4763325546        6.4924256149
  N        13.7262789932        5.1544319575       17.6083547082
  C        12.4098264858        5.4269338449       17.3332198869
  N         2.9181963199       17.5599713349       16.0042203319
  C         1.6003395496       17.2910516587       16.2750332026
  N        13.7262640828       17.6083505896        5.1544316679
  C        12.4098272151       17.3332193802        5.4269219384
  N        19.5962207225        5.1991082155       16.0079054376
  C        20.9145384555        5.4709902285       16.2750367556
  N         8.7635889696        5.1747580460        5.1747597824
  C        10.0843650137        5.4359524238        5.4359515935
  N         6.6127703376       19.7258139796       17.5714904383
  C         6.3443256382       21.0427676541       17.2981832648
  N         6.6423759787        8.9014851199        6.7491032781
  C         6.3712676631       10.2202193472        6.4835958220
  N         6.6004196646        3.0379521249        5.1931173302
  C         6.3332865614        1.7213119166        5.4682888781
  N         6.6475757601       13.8609670591       16.0135612322
  C         6.3768169380       12.5428126019       16.2807469312
  N        15.9003896520        3.0369425303       17.5728636001
  C        16.1667461819        1.7209926475       17.2959344199
  N        15.8670320223       13.8612787565        6.7541465530
  C        16.1379332830       12.5421003451        6.4881992111
  N        15.9015685613       19.7268931734        5.1849927778
  C        16.1670022075       21.0430192109        5.4616449865
  N        15.8807697143        8.8991985006       16.0226669905
  C        16.1531232211       10.2188455605       16.2841474129
  N        17.4445342652        6.7535737921       19.7247083838
  C        17.1743602407        6.4861407049       21.0424920562
  N        17.4439402531       17.5697138391        8.9044780141
  C        17.1745410615       17.2947012076       10.2211719768
  N         5.0569416397        6.7606793841        3.0405334006
  C         5.3250904166        6.4918642389        1.7220392440
  N         5.0821863855       17.5600406999       13.8588269837
  C         5.3546844473       17.2906608609       12.5420316539
  N        17.4426759384       16.0038876009        3.0405165316
  C        17.1740975813       16.2714572772        1.7222419791
  N        17.4310586856        5.2069780304       13.8591876733
  C        17.1596804483        5.4777971318       12.5418770316
  N         5.0682762257       16.0052209556       19.7231444800
  C         5.3354008360       16.2752506129       21.0417340526
  N         5.0769139654        5.2030951360        8.9051145298
  C         5.3493323813        5.4735248828       10.2217115888
  N        17.4459660241       19.7243524350       16.0060476798
  C        17.1755002002       21.0423811392       16.2727002198
  N        17.4298080726        8.9039403811        5.1999725210
  C        17.1590453287       10.2206665176        5.4741250929
  N         5.0660944780        3.0412116684       16.0064611951
  C         5.3345112929        1.7230785688       16.2761166066
  N         5.0786505201       13.8579129202        5.2019222806
  C         5.3497695630       12.5411584694        5.4728210795
  N        17.4418613462        3.0399645605        6.7551540996
  C        17.1733546243        1.7218633291        6.4871844990
  N        17.4448566274       13.8593289676       17.5630784627
  C        17.1749072425       12.5421025326       17.2913002119
  N         5.0603915970       19.7213748421        6.7633675121
  C         5.3265376823       21.0402930278        6.4934347386
  N         5.0807175420        8.9059226699       17.5564493136
  C         5.3543537277       10.2226921003       17.2887982861
  N        19.5928917140        6.7571496024        5.2005935461
  C        20.9109253622        6.4895353004        5.4733696249
  N         8.7848019614        6.7329107834       16.0252510052
  C        10.0989129974        6.4540834168       16.3028417497
  N         2.9146550020        6.7609789888       17.5555761672
  C         1.5967399710        6.4898316580       17.2872532647
  N        13.7322727070        6.7035790862        6.7035748849
  C        12.4133526511        6.4384140638        6.4384097044
  N         2.9142361373       16.0012370021        5.2033794282
  C         1.5963889793       16.2716796309        5.4733110875
  N        13.7415575957       16.0516290974       16.0516268748
  C        12.4220425802       16.3161630490       16.3161578774
  N        19.6009892703       16.0110841693       17.5672428201
  C        20.9189194290       16.2783940623       17.2945069032
  N         8.7848250272       16.0252468123        6.7329113849
  C        10.0989092902       16.3028288622        6.4540961314
  N         6.6100825547       17.5733862318        3.0399142315
  C         6.3431617012       17.2992344730        1.7228630611
  N         6.6426242273        6.7499172654       13.8597874503
  C         6.3710386865        6.4835856450       12.5415365605
  N         6.6043155655        5.1964513248       19.7252833524
  C         6.3350245860        5.4700218865       21.0417685838
  N         6.6472041969       16.0115611442        8.9033497000
  C         6.3770087076       16.2794353045       10.2217483980
  N        15.9027436776       17.5743296699       19.7268898123
  C        16.1678049640       17.2968860169       21.0430490576
  N        15.8652111381        6.7461507295        8.8984736789
  C        16.1370823963        6.4841215891       10.2180997736
  N        15.9000574605        5.1855808225        3.0362528695
  C        16.1664399569        5.4622712160        1.7204945309
  N        15.8817826287       16.0157697115       13.8614968114
  C        16.1535419900       16.2805754287       12.5422803352
 Zn        14.5879470473       14.7593355626       14.7593399812
 Cl        13.2334038478       13.5962716861       13.5962745667
 Zn        14.6106311193        3.8713056222        3.8713113322
 Cl        13.4294052283        2.6145981580        2.6146054133
 Zn         3.7820902234       14.7134262880        3.9081436658
 Cl         2.5447807298       13.4757624304        2.6855072174
 Zn         3.7820865064        3.9081461243       14.7134313927
 Cl         2.5447821951        2.6855071057       13.4757617664
 Zn         7.9436106452        8.0328536396       14.7243232202
 Cl         9.1656983004        9.2687482221       13.4860973414
 Zn         7.8948314097       18.8756230293        3.8972395633
 Cl         9.1199588258       20.1143127492        2.6633453556
 Zn        18.7262125465        8.0502058599        3.9063035222
 Cl        19.9525860704        9.2934293791        2.6791515429
 Zn        18.7351521454       18.8580694067       14.7170237387
 Cl        19.9635042716       20.0853077529       13.4749162154
 Zn         7.9436117439       14.7243178159        8.0328527774
 Cl         9.1656972918       13.4860953627        9.2687469151
 Zn         7.8948260673        3.8972388593       18.8756265756
 Cl         9.1199552177        2.6633456153       20.1143149173
 Zn        18.7351525167       14.7170219776       18.8580718030
 Cl        19.9635060021       13.4749191822       20.0853062642
 Zn        18.7262112405        3.9063027631        8.0502060708
 Cl        19.9525861678        2.6791549779        9.2934351031
 Zn        14.5672635734        8.0002126655        8.0002151691
 Cl        13.2032855202        9.1564068852        9.1564038117
 Zn        14.6133392987       18.8854185180       18.8854237319
 Cl        13.4264765651       20.1394295562       20.1394292800
 Zn         3.7800691221        8.0562409101       18.8430870479
 Cl         2.5411665462        9.2943007916       20.0646620904
 Zn         3.7800714080       18.8430792852        8.0562425531
 Cl         2.5411680289       20.0646609671        9.2943006631
 Zn        14.5777802480       14.7676830846        8.0102838959
 Cl        13.2191030182       13.6619547419        9.2224406062
 Zn        14.6113056941        3.8752149221       18.8859067311
 Cl        13.4271038411        2.6168067831       20.1382111213
 Zn         3.7842244405       14.7135856616       18.8503390703
 Cl         2.5474419615       13.4763765227       20.0745658092
 Zn         3.7772587955        3.9122390605        8.0554959497
 Cl         2.5372689073        2.6941535345        9.2949709160
 Zn         7.9423309883        8.0293384197        8.0293362264
 Cl         9.1678952930        9.2651794621        9.2651769283
 Zn         7.8995499031       18.8716487170       18.8716452724
 Cl         9.1305925943       20.1050171425       20.1050139530
 Zn        18.7340258750        8.0467251844       18.8633632236
 Cl        19.9656437283        9.2799042538       20.0953897589
 Zn        18.7340347125       18.8633744174        8.0467257506
 Cl        19.9656493349       20.0953955138        9.2799046686
 Zn        14.5777770950        8.0102791375       14.7676796427
 Cl        13.2190994727        9.2224410908       13.6619600433
 Zn        14.6113068703       18.8859107856        3.8752140525
 Cl        13.4271048717       20.1382097501        2.6168071703
 Zn         3.7772598269        8.0554957897        3.9122382081
 Cl         2.5372680588        9.2949699726        2.6941540405
 Zn         3.7842250882       18.8503493882       14.7135832119
 Cl         2.5474423520       20.0745688230       13.4763719373
 Zn         7.9451865376       14.7254274029       14.7254199923
 Cl         9.1627512689       13.4864079452       13.4864090740
 Zn         7.8880296265        3.8912015094        3.8912011895
 Cl         9.1045330663        2.6505491395        2.6505500916
 Zn        18.7269058424       14.7139769091        3.9104110598
 Cl        19.9506202660       13.4615460153        2.6890970884
 Zn        18.7268963924        3.9104144179       14.7139750662
 Cl        19.9506180185        2.6890983055       13.4615506419
 Zn         5.8459026935        5.9737198745       16.7841444448
 Zn        16.6672239389       16.8041597576       16.8041574476
 Zn        16.6617263459        5.9572919469        5.9572951597
 Zn         5.8459044884       16.7841431661        5.9737150606
 Zn         5.8418271510        5.9708224755        5.9708255326
 Zn        16.6645544551       16.8070855204        5.9597765258
 Zn         5.8494038818       16.7850520082       16.7850491721
 Zn        16.6645497915        5.9597744191       16.8070889771
  N         3.6607649366        5.9825455977       16.7778966927
  N        14.4739677436        5.9252002708        5.9251986825
  N        18.8545358468       16.7904835638       16.7904841528
  N         8.0296696414       16.8021563642        5.9624452626
  N        18.8466033048        5.9774539932        5.9774533621
  N         8.0296689101        5.9624382223       16.8021608089
  N         3.6607683624       16.7778932964        5.9825345800
  N        14.4824849696       16.8304314276       16.8304291346
  N        16.6715810818        3.7842382853        5.9674443962
  N        16.6626745790       14.6073040875       16.7918641537
  N        16.6759303903       18.9794936863       16.7934393601
  N        16.6472571581        8.1543262753        5.9692077607
  N         5.8334272511       18.9764896805        5.9787650041
  N         5.8625629981        8.1581828792       16.7840237322
  N         5.8378237623        3.7873038154       16.7910809357
  N         5.8607570393       14.6050628530        5.9747127408
  N         5.8378313373       16.7910829054        3.7873049744
  N         5.8607563274        5.9747123412       14.6050652158
  N        16.6759375377       16.7934400911       18.9794938254
  N        16.6472576734        5.9692011725        8.1543366466
  N         5.8334265750        5.9787644652       18.9764913013
  N         5.8625728991       16.7840164987        8.1581865488
  N        16.6715806464        5.9674430948        3.7842465918
  N        16.6626635755       16.7918552636       14.6073054323
  N         5.8285558702        3.7858955632        5.9751323585
  N         5.8642062381       14.6061366243       16.7872607745
  N        16.6744314851       18.9797460465        5.9664078948
  N        16.6612024033        8.1550369546       16.8001920030
  N         5.8410659920       18.9776218984       16.7893397401
  N         5.8590978214        8.1568391075        5.9746959480
  N        16.6722290281        3.7849098050       16.7913420243
  N        16.6494054596       14.6072069470        5.9784799092
  N         3.6646096453       16.7815615943       16.7815572687
  N        14.4782383040       16.8319715854        5.9294618437
  N        18.8504972496       16.7888639279        5.9752276404
  N         8.0336192746       16.8001215718       16.8001257534
  N        18.8504937295        5.9752205827       16.7888596950
  N         8.0255439678        5.9567156066        5.9567165219
  N         3.6570150617        5.9846168678        5.9846153447
  N        14.4782373957        5.9294740011       16.8319706098
  N        16.6744293099        5.9664105694       18.9797455526
  N        16.6612169696       16.8002042907        8.1550350982
  N        16.6722264563       16.7913363145        3.7849074178
  N        16.6493900384        5.9784728992       14.6072061053
  N         5.8285580721        5.9751341734        3.7858920279
  N         5.8641927483       16.7872723550       14.6061347886
  N         5.8410625960       16.7893394519       18.9776187448
  N         5.8591029280        5.9746985937        8.1568353912
  C        11.2677589938       15.7597357696       15.7597332940
  H        11.2807464446       14.9842157947       14.9842101424
  C        11.2386848692        4.8785019012        4.8785013298
  H        11.2263429783        4.1030930064        4.1030944412
  C         0.4352571305       15.7225512137        4.9226243128
  H         0.4358178804       14.9461412080        4.1479768850
  C         0.4352441397        4.9226323407       15.7225451600
  H         0.4358232468        4.1479896047       14.9461286384
  C        11.2640396093        6.9960967737       15.7570381325
  H        11.2772872002        7.7712282824       14.9811635383
  C        11.2430406785       17.8791696645        4.8846572186
  H        11.2315019003       18.6567440350        4.1114154635
  C         0.4319692279        7.0414435011        4.9251415999
  H         0.4326838974        7.8172825957        4.1498961825
  C         0.4396761849       17.8425633734       15.7259714552
  H         0.4403211551       18.6174314300       14.9497377531
  C        11.2640250523       15.7570323876        6.9960956180
  H        11.2772972235       14.9811590113        7.7712272728
  C        11.2430250829        4.8846592442       17.8791734980
  H        11.2315093309        4.1114156478       18.6567477300
  C         0.4396607875       15.7259700523       17.8425589314
  H         0.4403336710       14.9497344024       18.6174249118
  C         0.4319686352        4.9251444141        7.0414458287
  H         0.4326859007        4.1499006774        7.8172876999
  C        11.2599394706        6.9953568319        6.9953504297
  H        11.2733510753        7.7708452501        7.7708360728
  C        11.2476060169       17.8764436699       17.8764471701
  H        11.2368541790       18.6518586601       18.6518635031
  C         0.4362164423        7.0384144711       17.8396690639
  H         0.4370960365        7.8140471179       18.6151689189
  C         0.4362063507       17.8396648273        7.0384183580
  H         0.4371092505       18.6151611398        7.8140539971
  C        15.6000605499       11.3798377358       15.7354972453
  H        14.8149641096       11.3772494835       14.9700183747
  C        15.6197766937        0.5617237252        4.9068332079
  H        14.8520797845        0.5619528134        4.1231717529
  C         4.7955633270       11.3814077384        4.9261887259
  H         4.0153766158       11.3813316790        4.1552782447
  C         4.7886848576        0.5623790094       15.7210776181
  H         4.0183203944        0.5626536612       14.9404215596
  C        15.5843374302       11.3793161946        7.0326068286
  H        14.8006839797       11.3765602199        7.7992114804
  C        15.6199921101        0.5619714685       17.8509066826
  H        14.8515818836        0.5622045040       18.6338176504
  C         4.8004187856       11.3820393230       17.8368439134
  H         4.0196500500       11.3815198892       18.6072565629
  C         4.7797888725        0.5612032241        7.0475290452
  H         4.0098730087        0.5614882697        7.8285959652
  C         6.9305027696       11.3825944388       15.7326527315
  H         7.7093742275       11.3833342133       14.9604027344
  C         6.8810304494        0.5615935183        4.9151147534
  H         7.6513884318        0.5619385947        4.1343445515
  C        17.7125235799       11.3819419794        4.9291515748
  H        18.4909100717       11.3832288638        4.1562140446
  C        17.7201920976        0.5623772077       15.7157382083
  H        18.4897553499        0.5622393126       14.9343059734
  C         6.9240697494       11.3808646752        7.0318304295
  H         7.7027314237       11.3812296316        7.8043743624
  C         6.8909355180        0.5628689899       17.8524088290
  H         7.6618852285        0.5631389640       18.6325779477
  C        17.7278531456       11.3823249799       17.8401050735
  H        18.5053232571       11.3836720530       18.6138364540
  C        17.7192231366        0.5621722590        7.0431112827
  H        18.4886455823        0.5619642061        7.8246757885
  C        15.6000620442       15.7354998499       11.3798491898
  H        14.8149677427       14.9700217802       11.3772373670
  C        15.6197836769        4.9068258703        0.5617304831
  H        14.8520919304        4.1231615672        0.5619548710
  C         4.7886883932       15.7210756374        0.5623850849
  H         4.0183267499       14.9404196221        0.5626492787
  C         4.7955623444        4.9261902632       11.3814096538
  H         4.0153734723        4.1552837703       11.3813290080
  C         6.9305016955       15.7326498464       11.3825805208
  H         7.7093751398       14.9604002943       11.3833463594
  C         6.8810309624        4.9151155048        0.5615922852
  H         7.6513900888        4.1343436019        0.5619366605
  C        17.7201958274       15.7157372888        0.5623674170
  H        18.4897623955       14.9343074401        0.5622440616
  C        17.7125395344        4.9291681376       11.3819404395
  H        18.4909224730        4.1562208388       11.3832340475
  C        15.5843574550        7.0326296023       11.3793203216
  H        14.8006993005        7.7992340604       11.3765588990
  C        15.6199966719       17.8509082159        0.5619824222
  H        14.8515899673       18.6338229843        0.5621993029
  C         4.7797868185        7.0475279496        0.5612020826
  H         4.0098678726        7.8285938724        0.5614893653
  C         4.8004156717       17.8368406802       11.3820561824
  H         4.0196457817       18.6072545620       11.3815077833
  C         6.9240727551        7.0318261362       11.3808584499
  H         7.7027342582        7.8043679820       11.3812317795
  C         6.8909361203       17.8524091383        0.5628651148
  H         7.6618844332       18.6325777654        0.5631416045
  C        17.7192164555        7.0431131590        0.5621787583
  H        18.4886327512        7.8246804202        0.5619678053
  C        17.7278583782       17.8401059782       11.3823086757
  H        18.5053298110       18.6138332058       11.3836855285
 Kr        11.8150213707       11.3734817746       11.3734810166
