     409
 i =      96, E =    -5186.5875183283
  N         2.8604468824        5.2038652557       16.0174108224
  C         1.5426781851        5.4763207198       16.2870747111
  N        13.6849924044        5.2127582623        5.2127561640
  C        12.3672408194        5.4820828484        5.4820792648
  N        19.5397954373       17.5777692738       16.0212126247
  C        20.8579038360       17.3036637884       16.2875267058
  N         8.7234019131       17.5748590859        5.2065145186
  C        10.0410037358       17.3040347976        5.4768590308
  N        19.5466112784        5.2076094024        6.7638484775
  C        20.8646150142        5.4768952069        6.4930118777
  N         8.7234040736        5.2065079842       17.5748630234
  C        10.0410123446        5.4768527408       17.3040416833
  N         2.8622567541       17.5742831031        6.7600185338
  C         1.5440162261       17.3032785336        6.4923197536
  N        13.6766915362       17.5753069482       17.5753097321
  C        12.3589572497       17.3048666572       17.3048702505
  N        15.8337811445        3.0544741788        5.2104615058
  C        16.1011676314        1.7362966879        5.4808923299
  N        15.8317566645       13.8689962672       16.0184236820
  C        16.1024264130       12.5517175769       16.2874456897
  N        15.8265660785       19.7355013478       17.5763740467
  C        16.0949389622       21.0533463259       17.3045670480
  N        15.8337083159        8.9180650996        6.7661301026
  C        16.1015087175       10.2348007281        6.4932264716
  N         6.5731503063       19.7324015174        5.2060082447
  C         6.3068588558       21.0505820896        5.4776166937
  N         6.5703680765        8.9125838235       16.0179378453
  C         6.3006798749       10.2297621994       16.2882038473
  N         6.5741584735        3.0486948907       17.5744602234
  C         6.3061041320        1.7309420938       17.3023626726
  N         6.5712207058       13.8667304635        6.7614882610
  C         6.3026294390       12.5493990502        6.4912114710
  N         5.0204713611       16.0170045428        3.0492903380
  C         5.2913272896       16.2852550987        1.7314802786
  N         5.0180772244        5.2038954409       13.8664581393
  C         5.2881575058        5.4738476155       12.5491049742
  N        17.3809358969       16.0192848017       19.7349752561
  C        17.1102536015       16.2878406854       21.0528670152
  N        17.3923076732        5.2136158523        8.9165262441
  C        17.1205263164        5.4804238571       10.2341018724
  N         5.0172950839        6.7612397499       19.7341385767
  C         5.2903322490        6.4930255908       21.0516091363
  N         5.0170438446       17.5756909841        8.9119135334
  C         5.2858904301       17.3052748238       10.2293930237
  N        17.3875112269        6.7674573919        3.0527841852
  C        17.1161699587        6.4977571084        1.7351842722
  N        17.3838949156       17.5768404617       13.8696408984
  C        17.1161384474       17.3055207275       12.5521178402
  N         5.0234564944        3.0500905638        6.7616059428
  C         5.2938748793        1.7323772161        6.4929916294
  N         5.0156370531       13.8665238624       17.5757710055
  C         5.2851965628       12.5491252997       17.3054067822
  N        17.3836234367       19.7361354850        6.7654791167
  C        17.1139004505       21.0541559571        6.4966940100
  N        17.3859814145        8.9151848529       17.5770971784
  C        17.1171774244       10.2324648748       17.3055677021
  N         5.0160118247       19.7329460058       16.0175054684
  C         5.2887751871       21.0505939408       16.2853926480
  N         5.0195484363        8.9120519157        5.2045671758
  C         5.2889197437       10.2295139299        5.4742528664
  N        17.3849713592        3.0515920955       16.0204986988
  C        17.1124443145        1.7339479996       16.2884542885
  N        17.3898889341       13.8708602207        5.2089234295
  C        17.1194481712       12.5534608986        5.4780036203
  N         2.8584003841       16.0165799282       17.5731876700
  C         1.5402983356       16.2851255240       17.3012570848
  N        13.6789083741       16.0182487353        6.7657567481
  C        12.3614602261       16.2876253295        6.4942486407
  N        19.5421460998       16.0231194210        5.2068162000
  C        20.8605047949       16.2902282999        5.4781114856
  N         8.7202329385       16.0184484963       16.0184459273
  C        10.0378813433       16.2885936850       16.2885950838
  N        19.5441653693        6.7635690799       17.5792727403
  C        20.8619356735        6.4943876526       17.3062252251
  N         8.7273174691        6.7648159921        6.7648111377
  C        10.0453866159        6.4960942602        6.4960911870
  N         2.8643360225        6.7591258006        5.2027844968
  C         1.5464263111        6.4906196248        5.4745503588
  N        13.6789106851        6.7657544242       16.0182525711
  C        12.3614751953        6.4942415545       16.2876353329
  N        15.8290475304        5.2088078207       19.7373684571
  C        16.0985999741        5.4799662899       21.0551109198
  N        15.8338362696       16.0180195436        8.9147007805
  C        16.1035521019       16.2872643183       10.2320963897
  N        15.8311930893       17.5777729468        3.0526120414
  C        16.0973661930       17.3052522408        1.7345407312
  N        15.8306147340        6.7597941850       13.8708462668
  C        16.1002169008        6.4904903498       12.5536790921
  N         6.5804957891        5.2072853470        3.0496970720
  C         6.3108052499        5.4779883579        1.7318110975
  N         6.5690934274       16.0184135924       13.8667355956
  C         6.3000771070       16.2884361519       12.5493506554
  N         6.5695970830       17.5750955537       19.7320089003
  C         6.3035576754       17.3025756577       21.0499814069
  N         6.5728312410        6.7623412748        8.9130016883
  C         6.3033777470        6.4916372073       10.2300501729
  N        19.5441635128       17.5792681049        6.7635705266
  C        20.8619352537       17.3062250075        6.4943864315
  N         8.7198969460       17.5747684559       17.5747737435
  C        10.0376848898       17.3046354357       17.3046426094
  N         2.8643334308        5.2027813868        6.7591293257
  C         1.5464246418        5.4745469651        6.4906238816
  N        13.6800290894        5.2098722703       17.5749654217
  C        12.3621054926        5.4784204823       17.3039479813
  N         2.8584024548       17.5731860836       16.0165810949
  C         1.5402993396       17.3012547088       16.2851279879
  N        13.6800283042       17.5749661142        5.2098745095
  C        12.3620981458       17.3039485962        5.4784206543
  N        19.5421464015        5.2068237371       16.0231146974
  C        20.8605033261        5.4781218780       16.2902244723
  N         8.7295999739        5.2088875554        5.2088876367
  C        10.0468411138        5.4800664242        5.4800659335
  N         6.5695992396       19.7320059703       17.5750922612
  C         6.3035513976       21.0499725778       17.3025789729
  N         6.5728350395        8.9130009587        6.7623400428
  C         6.3033951408       10.2300489085        6.4916230904
  N         6.5804915505        3.0496935608        5.2072805476
  C         6.3108069637        1.7318008333        5.4779882988
  N         6.5690836818       13.8667360222       16.0184073940
  C         6.3000591342       12.5493511002       16.2884234466
  N        15.8311920208        3.0526119857       17.5777721338
  C        16.0973621046        1.7345401911       17.3052481329
  N        15.8306178579       13.8708463545        6.7597958940
  C        16.1002166230       12.5536789625        6.4904912510
  N        15.8290473189       19.7373665923        5.2088084215
  C        16.0985995253       21.0551094954        5.4799687933
  N        15.8338337921        8.9147014406       16.0180187221
  C        16.1035485241       10.2320958020       16.2872670119
  N        17.3836151048        6.7654866076       19.7361367072
  C        17.1138938998        6.4966961166       21.0541561568
  N        17.3859807647       17.5771022294        8.9151838727
  C        17.1171804552       17.3055699712       10.2324664200
  N         5.0234603801        6.7616058742        3.0500956745
  C         5.2938785001        6.4929821703        1.7323933237
  N         5.0156453113       17.5757737213       13.8665261957
  C         5.2852126295       17.3054180144       12.5491280876
  N        17.3849728454       16.0205004055        3.0515910718
  C        17.1124490428       16.2884587187        1.7339473042
  N        17.3898877579        5.2089240845       13.8708586628
  C        17.1194487447        5.4780059487       12.5534610954
  N         5.0160089215       16.0175056285       19.7329502146
  C         5.2887755746       16.2853818506       21.0506080673
  N         5.0195401073        5.2045706798        8.9120541704
  C         5.2888996491        5.4742694769       10.2295172502
  N        17.3809323219       19.7349769171       16.0192811350
  C        17.1102474351       21.0528674962       16.2878350992
  N        17.3923047342        8.9165254456        5.2136124088
  C        17.1205219997       10.2341001378        5.4804212358
  N         5.0204611222        3.0492907897       16.0170212613
  C         5.2913270043        1.7314727999       16.2852604284
  N         5.0180945045       13.8664542501        5.2038753720
  C         5.2881641291       12.5491022137        5.4738377515
  N        17.3875158731        3.0527821457        6.7674587326
  C        17.1161743318        1.7351814660        6.4977589685
  N        17.3838939447       13.8696407384       17.5768399169
  C        17.1161363849       12.5521165949       17.3055225715
  N         5.0173024953       19.7341385283        6.7612556602
  C         5.2903277083       21.0515999900        6.4930287248
  N         5.0170258995        8.9119100119       17.5756722498
  C         5.2858900757       10.2293919667       17.3052736994
  N        19.5466096936        6.7638473675        5.2076086681
  C        20.8646118084        6.4930091436        5.4768966485
  N         8.7226797805        6.7622964900       16.0182154226
  C        10.0404464873        6.4926407160       16.2877253481
  N         2.8622591120        6.7600202949       17.5742806310
  C         1.5440199183        6.4923178455       17.3032801133
  N        13.6832225887        6.7685506031        6.7685473618
  C        12.3659431923        6.4980668177        6.4980621931
  N         2.8604440335       16.0174183702        5.2038532251
  C         1.5426737033       16.2870757856        5.4763132313
  N        13.6770869848       16.0188353582       16.0188294264
  C        12.3592416638       16.2887605975       16.2887581772
  N        19.5397970054       16.0212119209       17.5777683276
  C        20.8579071042       16.2875245968       17.3036651401
  N         8.7226816984       16.0182074568        6.7622998397
  C        10.0404386052       16.2877188966        6.4926418260
  N         6.5741664068       17.5744442211        3.0486989355
  C         6.3061020583       17.3023567554        1.7309526837
  N         6.5712036524        6.7615028835       13.8667349114
  C         6.3026215861        6.4912155479       12.5494030756
  N         6.5731473817        5.2059943287       19.7324069734
  C         6.3068680213        5.4776136021       21.0505950450
  N         6.5703908085       16.0179569779        8.9125880629
  C         6.3006851735       16.2882036736       10.2297654364
  N        15.8265688515       17.5763793257       19.7355008630
  C        16.0949441489       17.3045735713       21.0533487886
  N        15.8337097281        6.7661304617        8.9180638616
  C        16.1015105393        6.4932280746       10.2347982236
  N        15.8337853387        5.2104525950        3.0544748835
  C        16.1011691667        5.4808848457        1.7362989033
  N        15.8317609970       16.0184198995       13.8689946444
  C        16.1024324926       16.2874424117       12.5517159998
 Zn        14.5408578644       14.7246269087       14.7246254965
 Cl        13.3142071463       13.4892239309       13.4892284279
 Zn        14.5456483199        3.9195026315        3.9195096927
 Cl        13.3028759450        2.6919194255        2.6919255132
 Zn         3.7276329184       14.7252512691        3.9091686706
 Cl         2.4991390275       13.4898150000        2.6759733347
 Zn         3.7276354552        3.9091667701       14.7252527938
 Cl         2.4991382086        2.6759707750       13.4898197986
 Zn         7.8607975009        8.0553456808       14.7236463487
 Cl         9.0964682600        9.2866451009       13.4932086197
 Zn         7.8604853011       18.8699279979        3.9115880614
 Cl         9.1008557770       20.1009629277        2.6856887202
 Zn        18.6789963940        8.0568274293        3.9158549437
 Cl        19.9095862457        9.2924407409        2.6843948639
 Zn        18.6726237717       18.8720830268       14.7283131488
 Cl        19.9052206290       20.1002329025       13.4917105426
 Zn         7.8607905626       14.7236424338        8.0553486863
 Cl         9.0964658128       13.4932046096        9.2866424478
 Zn         7.8604915314        3.9115804030       18.8699338373
 Cl         9.1008591044        2.6856841096       20.1009733321
 Zn        18.6726239094       14.7283134704       18.8720816055
 Cl        19.9052226912       13.4917169521       20.1002341015
 Zn        18.6789986122        3.9158562072        8.0568285902
 Cl        19.9095889241        2.6844008573        9.2924445027
 Zn        14.5447156089        8.0615402817        8.0615398848
 Cl        13.2953012117        9.2856243668        9.2856254845
 Zn        14.5395604860       18.8707816084       18.8707817298
 Cl        13.2986147253       20.0989605513       20.0989598370
 Zn         3.7268476556        8.0521954699       18.8704162922
 Cl         2.4898677439        9.2889239071       20.0938996010
 Zn         3.7268447074       18.8704117973        8.0521970393
 Cl         2.4898654430       20.0938936035        9.2889274802
 Zn        14.5432425317       14.7236633088        8.0571788026
 Cl        13.3278486945       13.4785617705        9.2941623533
 Zn        14.5426779833        3.9160538953       18.8712731021
 Cl        13.3002943273        2.6822443159       20.0925389313
 Zn         3.7252342732       14.7257059500       18.8700958558
 Cl         2.4923926984       13.4895145859       20.0983024002
 Zn         3.7296637791        3.9093822011        8.0523658380
 Cl         2.4975688682        2.6799490481        9.2879437291
 Zn         7.8637158975        8.0568804107        8.0568823983
 Cl         9.0932453165        9.2907971231        9.2907936173
 Zn         7.8567323363       18.8696667315       18.8696666385
 Cl         9.0974545663       20.0979809318       20.0979792564
 Zn        18.6753364657        8.0554661684       18.8727451621
 Cl        19.9032205375        9.2926700116       20.1050696940
 Zn        18.6753396046       18.8727463311        8.0554663086
 Cl        19.9032222375       20.1050743785        9.2926663497
 Zn        14.5432409686        8.0571771080       14.7236643709
 Cl        13.3278484648        9.2941644588       13.4785617689
 Zn        14.5426768812       18.8712732561        3.9160535213
 Cl        13.3002937566       20.0925399328        2.6822442529
 Zn         3.7296644114        8.0523641544        3.9093875522
 Cl         2.4975665476        9.2879393878        2.6799517767
 Zn         3.7252349909       18.8700923641       14.7257059192
 Cl         2.4923970990       20.0983034997       13.4895128278
 Zn         7.8585307805       14.7240372110       14.7240387430
 Cl         9.0934459284       13.4928305837       13.4928310777
 Zn         7.8707097298        3.9137200029        3.9137214287
 Cl         9.1077297668        2.6837381402        2.6837383629
 Zn        18.6764644639       14.7292538081        3.9127596379
 Cl        19.9123987699       13.4941880804        2.6863417447
 Zn        18.6764631943        3.9127634091       14.7292554274
 Cl        19.9123963013        2.6863420654       13.4941904453
 Zn         5.7917530438        5.9845063934       16.7979840059
 Zn        16.6073209930       16.8027074532       16.8027044537
 Zn        16.6124152546        5.9925514455        5.9925518312
 Zn         5.7917536500       16.7979708940        5.9845170134
 Zn         5.7949855424        5.9854914473        5.9854965937
 Zn        16.6098276556       16.8040065794        5.9893496245
 Zn         5.7897371850       16.7979878122       16.7979929400
 Zn        16.6098271838        5.9893503788       16.8040069841
  N         3.6075654999        5.9807453044       16.7963690990
  N        14.4304533601        5.9910714555        5.9910711664
  N        18.7935332491       16.8017212997       16.8017164720
  N         7.9767190421       16.7969447802        5.9843320351
  N        18.8002575866        5.9862462956        5.9862423320
  N         7.9767189647        5.9843281072       16.7969510041
  N         3.6075642343       16.7963633592        5.9807508196
  N        14.4231313614       16.7972808462       16.7972792212
  N        16.6117074975        3.8004433731        5.9887108308
  N        16.6069808287       14.6160681474       16.7982539923
  N        16.6045460805       18.9886484575       16.7988464108
  N        16.6141288209        8.1708560619        5.9915670775
  N         5.7933615096       18.9865297793        5.9824998008
  N         5.7937673749        8.1657715552       16.7966809826
  N         5.7962563652        3.7957063887       16.7969346430
  N         5.7941433890       14.6132364547        5.9830135837
  N         5.7962513525       16.7969345053        3.7957082570
  N         5.7941738450        5.9829867545       14.6132386826
  N        16.6045484298       16.7988475880       18.9886470371
  N        16.6141280184        5.9915690262        8.1708554237
  N         5.7933681003        5.9825028677       18.9865323304
  N         5.7937377746       16.7966535919        8.1657734945
  N        16.6117084413        5.9887047179        3.8004449521
  N        16.6069842237       16.7982535097       14.6160663467
  N         5.8014417380        3.7965696462        5.9838191392
  N         5.7921083556       14.6132558561       16.7970422260
  N        16.6065151323       18.9901360816        5.9865900462
  N        16.6095232037        8.1685749670       16.7982608486
  N         5.7908919554       18.9857729641       16.7977876451
  N         5.7960517809        8.1660856346        5.9840000855
  N        16.6098620320        3.7988590435       16.8005440491
  N        16.6105806003       14.6176593364        5.9847584636
  N         3.6045853028       16.7959376384       16.7959382823
  N        14.4258125691       16.7971283072        5.9885548817
  N        18.7968599739       16.8027249060        5.9845034546
  N         7.9737622143       16.7966031271       16.7966086393
  N        18.7968618620        5.9845008331       16.8027266521
  N         7.9819521363        5.9862912501        5.9862942047
  N         3.6106362705        5.9801767758        5.9801793795
  N        14.4258093831        5.9885572011       16.7971243699
  N        16.6065123908        5.9865940739       18.9901378162
  N        16.6095235450       16.7982643143        8.1685735561
  N        16.6098615357       16.8005407847        3.7988580836
  N        16.6105754847        5.9847568041       14.6176586072
  N         5.8014422035        5.9838265953        3.7965697965
  N         5.7920962442       16.7970282353       14.6132566758
  N         5.7908919002       16.7977950845       18.9857728750
  N         5.7960673247        5.9839796515        8.1660868503
  C        11.1986357447       15.7383681265       15.7383636246
  H        11.1983261588       14.9627880872       14.9627783046
  C        11.2079837363        4.9306865668        4.9306841882
  H        11.2100807059        4.1551762981        4.1551751793
  C         0.3804661841       15.7379521196        4.9277844391
  H         0.3783047588       14.9620113990        4.1526245376
  C         0.3804666751        4.9277958866       15.7379402386
  H         0.3783043912        4.1526410424       14.9619946755
  C        11.2005845597        7.0434810398       15.7369395978
  H        11.1993194804        7.8187953155       14.9611015296
  C        11.2019259783       17.8541262917        4.9272701299
  H        11.2026246302       18.6296889531        4.1517859737
  C         0.3855219114        7.0420834441        4.9257096176
  H         0.3856975640        7.8177275311        4.1502758184
  C         0.3790956363       17.8513218628       15.7352103828
  H         0.3791501287       18.6260273839       14.9588360933
  C        11.2005887746       15.7369354511        7.0434778971
  H        11.1993186605       14.9610954007        7.8187895354
  C        11.2019314576        4.9272664070       17.8541281900
  H        11.2026321860        4.1517818825       18.6296890831
  C         0.3790931190       15.7352118231       17.8513196249
  H         0.3791481480       14.9588379783       18.6260246863
  C         0.3855190271        4.9257119826        7.0420838064
  H         0.3856941947        4.1502800288        7.8177285938
  C        11.2047396210        7.0476898234        7.0476839806
  H        11.2038959594        7.8233171125        7.8233106552
  C        11.1981966378       17.8549402488       17.8549487001
  H        11.1979220649       18.6304594628       18.6304726392
  C         0.3841037058        7.0441186318       17.8540732674
  H         0.3865661496        7.8202235568       18.6290213152
  C         0.3841040530       17.8540697572        7.0441203856
  H         0.3865665205       18.6290113241        7.8202319203
  C        15.5538063311       11.3916961215       15.7348751295
  H        14.7801339968       11.3912806743       14.9572952013
  C        15.5496000899        0.5765203968        4.9299858640
  H        14.7743438703        0.5782348949        4.1541533459
  C         4.7386667592       11.3890434222        4.9225512494
  H         3.9639531431       11.3884935473        4.1461985680
  C         4.7410398378        0.5715792853       15.7335691144
  H         3.9665103217        0.5728527025       14.9569777704
  C        15.5467126185       11.3945239095        7.0393645758
  H        14.7671048478       11.3954293061        7.8107821327
  C        15.5454314942        0.5743640514       17.8548517071
  H        14.7698591750        0.5754071624       18.6303741447
  C         4.7351937379       11.3890648604       17.8563061693
  H         3.9597246665       11.3886465136       18.6319179091
  C         4.7417363844        0.5728084097        7.0434039939
  H         3.9655279249        0.5745497875        7.8183059823
  C         6.8507223676       11.3897526090       15.7370772607
  H         7.6258935941       11.3900390049       14.9610233519
  C         6.8603737423        0.5704193166        4.9286079328
  H         7.6371692657        0.5689802013        4.1542844809
  C        17.6721298778       11.3935094646        4.9297372100
  H        18.4497760740       11.3930442297        4.1563085534
  C        17.6608788360        0.5730519336       15.7369409870
  H        18.4363194742        0.5723901675       14.9612376851
  C         6.8531823852       11.3899986321        7.0429570737
  H         7.6276272939       11.3902516344        7.8197527684
  C         6.8555079604        0.5699509459       17.8526222175
  H         7.6308089251        0.5689981732       18.6284464245
  C        17.6664429211       11.3925486961       17.8570690789
  H        18.4404620104       11.3929139743       18.6341151503
  C        17.6646973496        0.5739247489        7.0482949693
  H        18.4396250930        0.5726007534        7.8244933712
  C        15.5538143832       15.7348706987       11.3916953585
  H        14.7801457382       14.9572882303       11.3912795234
  C        15.5496061455        4.9299785576        0.5765197627
  H        14.7743556644        4.1541400021        0.5782330996
  C         4.7410479986       15.7335633733        0.5715785177
  H         3.9665188532       14.9569716687        0.5728544334
  C         4.7386408701        4.9225756533       11.3890449506
  H         3.9639280053        4.1462233951       11.3884957021
  C         6.8507416000       15.7370967604       11.3897529195
  H         7.6259125846       14.9610424413       11.3900376143
  C         6.8603751380        4.9286069798        0.5704249399
  H         7.6371706771        4.1542852441        0.5689893316
  C        17.6608862329       15.7369477965        0.5730506535
  H        18.4363280408       14.9612465677        0.5723883990
  C        17.6721329241        4.9297436256       11.3935085411
  H        18.4497816842        4.1563173642       11.3930450648
  C        15.5467119402        7.0393666199       11.3945239783
  H        14.7671028142        7.8107839207       11.3954284755
  C        15.5454378776       17.8548579432        0.5743618342
  H        14.7698664530       18.6303808969        0.5754060752
  C         4.7417303879        7.0434001582        0.5728084181
  H         3.9655187250        7.8182986983        0.5745519706
  C         4.7352100116       17.8563209970       11.3890653614
  H         3.9597369284       18.6319302025       11.3886473896
  C         6.8531629654        7.0429767114       11.3899984740
  H         7.6276124871        7.8197678025       11.3902498684
  C         6.8555122911       17.8526160465        0.5699562209
  H         7.6308135542       18.6284417175        0.5690060604
  C        17.6646906281        7.0482998779        0.5739269834
  H        18.4396156710        7.8245020961        0.5726039906
  C        17.6664453757       17.8570710665       11.3925476311
  H        18.4404630973       18.6341182133       11.3929152423
 Kr        16.7703794519       10.5284851025       10.5284854120
