     409
 i =      96, E =    -5186.5827360442
  N         3.0415001408        5.2053930874       16.0175002772
  C         1.7236254676        5.4768009205       16.2858244428
  N        13.8592170918        5.2039180997        5.2039179415
  C        12.5417617944        5.4740715795        5.4740671226
  N        19.7251783198       17.5727994629       16.0167445439
  C        21.0431313790       17.3013695497       16.2853205807
  N         8.9048513995       17.5741346512        5.2050318154
  C        10.2224666807       17.3035193500        5.4742033930
  N        19.7230087157        5.2046042936        6.7606162807
  C        21.0408927461        5.4765016512        6.4925449184
  N         8.9048500089        5.2050312511       17.5741329915
  C        10.2224665549        5.4742047437       17.3035190730
  N         3.0409887047       17.5739981866        6.7612850069
  C         1.7232834866       17.3020636642        6.4926196257
  N        13.8614488705       17.5733334674       17.5733317806
  C        12.5438675705       17.3034240501       17.3034217999
  N        16.0101461486        3.0475403092        5.2041968901
  C        16.2790025358        1.7297387401        5.4754106654
  N        16.0127982096       13.8656489390       16.0168839247
  C        16.2828800690       12.5483216259       16.2865490153
  N        16.0123146435       19.7304742120       17.5728477031
  C        16.2804430672       21.0483513626       17.3010372823
  N        16.0112267339        8.9113321847        6.7600278906
  C        16.2814334786       10.2285368458        6.4901533438
  N         6.7541533749       19.7318472360        5.2053213751
  C         6.4851984418       21.0497276309        5.4765230945
  N         6.7541425240        8.9118241148       16.0178302036
  C         6.4842417344       10.2292084183       16.2876915572
  N         6.7541472217        3.0492397111       17.5742256129
  C         6.4862409158        1.7312602721       17.3024381140
  N         6.7537638361       13.8666073670        6.7609351531
  C         6.4838106929       12.5492635338        6.4909768303
  N         5.1984682057       16.0178886472        3.0488023837
  C         5.4704189058       16.2862664898        1.7310134620
  N         5.1977061830        5.2053043452       13.8669117423
  C         5.4676744424        5.4751430518       12.5494244526
  N        17.5678994900       16.0163796291       19.7304974974
  C        17.2962108540       16.2847428323       21.0484172722
  N        17.5668252486        5.2039466624        8.9107428134
  C        17.2973083611        5.4740807276       10.2282507404
  N         5.1978422211        6.7611717828       19.7318455392
  C         5.4690381606        6.4924485186       21.0496519745
  N         5.1982836677       17.5740670684        8.9119240095
  C         5.4683806437       17.3038375181       10.2293070915
  N        17.5660265911        6.7600843651        3.0477673156
  C        17.2949867547        6.4913776759        1.7298863091
  N        17.5684559412       17.5729226008       13.8659312837
  C        17.2987353281       17.3026739030       12.5483876650
  N         5.1968380016        3.0487005219        6.7609908146
  C         5.4685045589        1.7309443007        6.4923834881
  N         5.1990262509       13.8669731297       17.5740343221
  C         5.4686956488       12.5494540329       17.3038279271
  N        17.5668637972       19.7306661362        6.7599761170
  C        17.2954207996       21.0485378395        6.4913158816
  N        17.5675648414        8.9106228698       17.5732211107
  C        17.2982891209       10.2281881052       17.3027546096
  N         5.1994844586       19.7316968234       16.0177377454
  C         5.4709463792       21.0495530946       16.2862150239
  N         5.1970712498        8.9120007359        5.2052618145
  C         5.4674100517       10.2293674891        5.4751455342
  N        17.5669926694        3.0479022136       16.0162678242
  C        17.2957297929        1.7299379095       16.2846982069
  N        17.5677282012       13.8658718685        5.2042382453
  C        17.2977487642       12.5483502385        5.4741564573
  N         3.0425321217       16.0178551688       17.5740490834
  C         1.7247028294       16.2859029868       17.3019289078
  N        13.8600118208       16.0169285259        6.7596247633
  C        12.5426920147       16.2868695950        6.4895351624
  N        19.7242964460       16.0166263072        5.2046583163
  C        21.0421413274       16.2853157280        5.4763393614
  N         8.9059053278       16.0180187889       16.0180175083
  C        10.2233648445       16.2877783973       16.2877760633
  N        19.7238286826        6.7602161488       17.5731193899
  C        21.0418371928        6.4921164995       17.3016321156
  N         8.9045953105        6.7604176414        6.7604172987
  C        10.2218784670        6.4903467134        6.4903418343
  N         3.0400241271        6.7619323843        5.2057441364
  C         1.7222604384        6.4931373965        5.4771045756
  N        13.8600118578        6.7596225300       16.0169314374
  C        12.5426850291        6.4895325927       16.2868749509
  N        16.0110345544        5.2038778645       19.7305531448
  C        16.2794367525        5.4752493693       21.0484082499
  N        16.0121016762       16.0169215206        8.9111997649
  C        16.2825154804       16.2865704562       10.2284259461
  N        16.0113886354       17.5725601547        3.0475431609
  C        16.2799728192       17.3009045206        1.7297532028
  N        16.0119053247        6.7600200291       13.8655639615
  C        16.2817863337        6.4901677569       12.5482844137
  N         6.7529229868        5.2051447378        3.0491308484
  C         6.4845692099        5.4764740766        1.7311973951
  N         6.7546068508       16.0178388353       13.8667002175
  C         6.4844995422       16.2876478247       12.5493158314
  N         6.7553990832       17.5740890061       19.7317540896
  C         6.4868642283       17.3023990185       21.0496744873
  N         6.7533802756        6.7609697245        8.9119858046
  C         6.4835903768        6.4909607394       10.2293105231
  N        19.7238356890       17.5731207400        6.7602153212
  C        21.0418410262       17.3016337797        6.4921128381
  N         8.9059423245       17.5738672664       17.5738653639
  C        10.2235058352       17.3037486238       17.3037459087
  N         3.0400244691        5.2057407438        6.7619354916
  C         1.7222573531        5.4771054038        6.4931363270
  N        13.8603082599        5.2038389996       17.5732855464
  C        12.5428009235        5.4737257835       17.3031004417
  N         3.0425310998       17.5740513302       16.0178536314
  C         1.7247032262       17.3019305957       16.2859017536
  N        13.8603113283       17.5732879910        5.2038359736
  C        12.5427980408       17.3030971913        5.4737262713
  N        19.7242893163        5.2046605545       16.0166266910
  C        21.0421386003        5.4763426732       16.2853140837
  N         8.9038106690        5.2046920249        5.2046916997
  C        10.2214629820        5.4744090859        5.4744043213
  N         6.7553994703       19.7317549583       17.5740873270
  C         6.4868642298       21.0496750406       17.3023977573
  N         6.7533828224        8.9119869997        6.7609717719
  C         6.4835912829       10.2293117000        6.4909592781
  N         6.7529210506        3.0491316046        5.2051457428
  C         6.4845688332        1.7311973970        5.4764723276
  N         6.7546067376       13.8667008917       16.0178388429
  C         6.4844997577       12.5493173300       16.2876477491
  N        16.0113885181        3.0475422810       17.5725572732
  C        16.2799694128        1.7297591801       17.3009084780
  N        16.0119137526       13.8655663609        6.7600171078
  C        16.2817764802       12.5482815959        6.4901530664
  N        16.0110322683       19.7305525593        5.2038746091
  C        16.2794402061       21.0484119636        5.4752521254
  N        16.0120984481        8.9112013699       16.0169180913
  C        16.2825228469       10.2284241982       16.2865600928
  N        17.5668614142        6.7599747283       19.7306647919
  C        17.2954162088        6.4913121293       21.0485439414
  N        17.5675627967       17.5732194104        8.9106228679
  C        17.2982810559       17.3027647122       10.2281896656
  N         5.1968397458        6.7609897825        3.0487011951
  C         5.4685046288        6.4923855766        1.7309462124
  N         5.1990257591       17.5740355207       13.8669710708
  C         5.4686956900       17.3038280405       12.5494546251
  N        17.5669964051       16.0162669646        3.0478998563
  C        17.2957348076       16.2846928114        1.7299431820
  N        17.5677292913        5.2042326328       13.8658712373
  C        17.2977599289        5.4741706396       12.5483521808
  N         5.1994848199       16.0177398550       19.7316953782
  C         5.4709463684       16.2862161235       21.0495522020
  N         5.1970697656        5.2052604516        8.9120001145
  C         5.4674096952        5.4751472521       10.2293703602
  N        17.5678961647       19.7304996494       16.0163781827
  C        17.2962098859       21.0484162933       16.2847434487
  N        17.5668244355        8.9107359588        5.2039542520
  C        17.2972960337       10.2282450271        5.4740686780
  N         5.1984679762        3.0488041050       16.0178899096
  C         5.4704178070        1.7310155778       16.2862658706
  N         5.1977066166       13.8669111281        5.2053028088
  C         5.4676761237       12.5494220728        5.4751419656
  N        17.5660271675        3.0477685302        6.7600843062
  C        17.2949871629        1.7298815560        6.4913779620
  N        17.5684574593       13.8659285674       17.5729250762
  C        17.2987443921       12.5483851964       17.3026652583
  N         5.1978420585       19.7318457348        6.7611710539
  C         5.4690385981       21.0496517940        6.4924457091
  N         5.1982828000        8.9119241251       17.5740664157
  C         5.4683794632       10.2293063341       17.3038383893
  N        19.7230088927        6.7606139670        5.2046069879
  C        21.0408911505        6.4925449665        5.4765019787
  N         8.9052390619        6.7601816125       16.0177518345
  C        10.2226176336        6.4898187345       16.2872288866
  N         3.0409833528        6.7612866746       17.5739995049
  C         1.7232800503        6.4926229223       17.3020616273
  N        13.8591880813        6.7599807978        6.7599790892
  C        12.5418332479        6.4900900260        6.4900849250
  N         3.0415061490       16.0175014431        5.2053942171
  C         1.7236277568       16.2858269238        5.4767983770
  N        13.8608470187       16.0172562367       16.0172541487
  C        12.5435503245       16.2874092719       16.2874070600
  N        19.7251792296       16.0167425311       17.5728007393
  C        21.0431319911       16.2853205094       17.3013692039
  N         8.9052397752       16.0177526329        6.7601827462
  C        10.2226204990       16.2872279129        6.4898184943
  N         6.7541496740       17.5742255747        3.0492374849
  C         6.4862425573       17.3024389102        1.7312606501
  N         6.7537620274        6.7609365488       13.8666078375
  C         6.4838081972        6.4909777661       12.5492627317
  N         6.7541520714        5.2053231636       19.7318459536
  C         6.4851979498        5.4765257194       21.0497285981
  N         6.7541435038       16.0178306906        8.9118241157
  C         6.4842427992       16.2876907189       10.2292076214
  N        16.0123174709       17.5728488196       19.7304726500
  C        16.2804433614       17.3010369183       21.0483493285
  N        16.0112214934        6.7600259087        8.9113376319
  C        16.2814443729        6.4901664000       10.2285402908
  N        16.0101443662        5.2041943237        3.0475403267
  C        16.2790020032        5.4754096591        1.7297378768
  N        16.0127988266       16.0168835170       13.8656502752
  C        16.2828721933       16.2865586130       12.5483236319
 Zn        14.7192326681       14.7230158389       14.7230166742
 Cl        13.4864567344       13.4910674503       13.4910676270
 Zn        14.7193163438        3.9091613725        3.9091644835
 Cl        13.4814825194        2.6797068157        2.6797075650
 Zn         3.9040219722       14.7255628832        3.9102442181
 Cl         2.6732541892       13.4890469658        2.6808612928
 Zn         3.9040214856        3.9102471765       14.7255646171
 Cl         2.6732538309        2.6808623582       13.4890477963
 Zn         8.0489367292        8.0540852887       14.7236860213
 Cl         9.2802044752        9.2865857715       13.4909256054
 Zn         8.0464181704       18.8691851457        3.9110684959
 Cl         9.2831175437       20.0981013167        2.6800244745
 Zn        18.8605260723        8.0517762081        3.9091836081
 Cl        20.0900100973        9.2886135645        2.6787831556
 Zn        18.8626284087       18.8678386497       14.7249526378
 Cl        20.0922361478       20.0967354047       13.4867673567
 Zn         8.0489365421       14.7236858518        8.0540852923
 Cl         9.2802049796       13.4909260603        9.2865852820
 Zn         8.0464178369        3.9110682023       18.8691860480
 Cl         9.2831170182        2.6800249066       20.0981016613
 Zn        18.8626300016       14.7249512570       18.8678388936
 Cl        20.0922371224       13.4867665953       20.0967360664
 Zn        18.8605253626        3.9091817196        8.0517813033
 Cl        20.0900106497        2.6787812559        9.2886159303
 Zn        14.7180561108        8.0539624333        8.0539670086
 Cl        13.4853642564        9.2859611610        9.2859612037
 Zn        14.7214758522       18.8680768287       18.8680775079
 Cl        13.4834660390       20.0974168390       20.0974169484
 Zn         3.9038236691        8.0529369763       18.8691235478
 Cl         2.6733228428        9.2903901302       20.0978108144
 Zn         3.9038242672       18.8691242611        8.0529368544
 Cl         2.6733228051       20.0978112967        9.2903894736
 Zn        14.7186444618       14.7228995536        8.0538175549
 Cl        13.4858969460       13.4908532522        9.2857109936
 Zn        14.7203822281        3.9090157583       18.8679728375
 Cl        13.4824559919        2.6788588875       20.0966123748
 Zn         3.9050399326       14.7257449906       18.8691483509
 Cl         2.6742973929       13.4886276879       20.0979343845
 Zn         3.9028764442        3.9103374261        8.0531188747
 Cl         2.6723147377        2.6810638060        9.2899516173
 Zn         8.0486041443        8.0542299644        8.0542314871
 Cl         9.2799224006        9.2868294379        9.2868299369
 Zn         8.0475322202       18.8686974614       18.8686961436
 Cl         9.2853382890       20.0980924163       20.0980912362
 Zn        18.8611587903        8.0515676043       18.8684271324
 Cl        20.0914223116        9.2889920231       20.0974367643
 Zn        18.8611612586       18.8684274875        8.0515635113
 Cl        20.0914235231       20.0974367251        9.2889914111
 Zn        14.7186460672        8.0538187439       14.7228972028
 Cl        13.4858970278        9.2857108794       13.4908544321
 Zn        14.7203801861       18.8679769703        3.9090116913
 Cl        13.4824546195       20.0966139327        2.6788554673
 Zn         3.9028769102        8.0531167417        3.9103415110
 Cl         2.6723162117        9.2899494183        2.6810657059
 Zn         3.9050402401       18.8691479186       14.7257439419
 Cl         2.6742980359       20.0979347920       13.4886264619
 Zn         8.0493060730       14.7238260327       14.7238265943
 Cl         9.2805235867       13.4911636300       13.4911632630
 Zn         8.0452719333        3.9104298696        3.9104298479
 Cl         9.2809568084        2.6799284437        2.6799292562
 Zn        18.8620050925       14.7247727119        3.9097450830
 Cl        20.0907811710       13.4871704840        2.6794260606
 Zn        18.8620007121        3.9097470959       14.7247690284
 Cl        20.0907791500        2.6794275488       13.4871725649
 Zn         5.9715313709        5.9851037917       16.7972056202
 Zn        16.7876273677       16.7950379389       16.7950418901
 Zn        16.7851950994        5.9829663655        5.9829741585
 Zn         5.9715302102       16.7972029905        5.9851069432
 Zn         5.9698108528        5.9850655821        5.9850718293
 Zn        16.7863445903       16.7950473094        5.9829008457
 Zn         5.9736063800       16.7971925341       16.7971924797
 Zn        16.7863320699        5.9828840289       16.7950668830
  N         3.7876673698        5.9825772649       16.7967869480
  N        14.6054701150        5.9819203992        5.9819338155
  N        18.9785002711       16.7956209537       16.7956175353
  N         8.1583922627       16.7962227779        5.9830065638
  N        18.9763083178        5.9814971140        5.9814983184
  N         8.1583911440        5.9830037244       16.7962187070
  N         3.7876736176       16.7967828475        5.9825811736
  N        14.6074456285       16.7951882898       16.7951904870
  N        16.7886668764        3.7943153521        5.9814724465
  N        16.7903870642       14.6122304097       16.7950885033
  N        16.7910780076       18.9838388832       16.7955623436
  N        16.7887049260        8.1646022485        5.9818750035
  N         5.9752811315       18.9852158591        5.9825655685
  N         5.9761469625        8.1655383059       16.7960225913
  N         5.9751157913        3.7956955720       16.7970607619
  N         5.9757213640       14.6132700049        5.9832276795
  N         5.9751202477       16.7970621271        3.7956948273
  N         5.9757189893        5.9832236602       14.6132696173
  N        16.7910774038       16.7955668581       18.9838368924
  N        16.7886838671        5.9818534907        8.1646060435
  N         5.9752774788        5.9825664194       18.9852154686
  N         5.9761498066       16.7960207570        8.1655382724
  N        16.7886731398        5.9814672078        3.7943150269
  N        16.7903977916       16.7950805724       14.6122319145
  N         5.9738984049        3.7956277947        5.9822969284
  N         5.9769521702       14.6133203660       16.7960120584
  N        16.7897209399       18.9839392383        5.9811610618
  N        16.7893466986        8.1644947276       16.7953053638
  N         5.9765240179       18.9851233038       16.7968305876
  N         5.9750495523        8.1656235217        5.9832339011
  N        16.7899060344        3.7943562547       16.7953248746
  N        16.7897042412       14.6121741370        5.9821003701
  N         3.7889857293       16.7971133165       16.7971127483
  N        14.6064394136       16.7951508489        5.9818522333
  N        18.9773756158       16.7956811404        5.9813823205
  N         8.1593509420       16.7959799934       16.7959799098
  N        18.9773661766        5.9813732427       16.7956894774
  N         8.1574757667        5.9827261688        5.9827320902
  N         3.7864427341        5.9831227986        5.9831141926
  N        14.6064337133        5.9818399105       16.7951543120
  N        16.7897059769        5.9811493594       18.9839415873
  N        16.7893721973       16.7952906565        8.1644990441
  N        16.7899268374       16.7953187142        3.7943582343
  N        16.7896675376        5.9820754305       14.6121793296
  N         5.9738928132        5.9823001099        3.7956270545
  N         5.9769523835       16.7960117885       14.6133195857
  N         5.9765231818       16.7968314879       18.9851221657
  N         5.9750562645        5.9832363300        8.1656227621
  C        11.3832718532       15.7369977273       15.7369951239
  H        11.3830659465       14.9613980109       14.9613965201
  C        11.3814284603        4.9237420580        4.9237358277
  H        11.3812385638        4.1482095644        4.1482073937
  C         0.5630950196       15.7346019573        4.9270965305
  H         0.5637598237       14.9585058912        4.1520951614
  C         0.5630932911        4.9271011022       15.7345996040
  H         0.5637576992        4.1520964255       14.9585061872
  C        11.3826139553        7.0400472871       15.7362025091
  H        11.3826299623        7.8154730595       14.9604352367
  C        11.3825919326       17.8538033225        4.9235091134
  H        11.3826116190       18.6294450824        4.1480896134
  C         0.5615697406        7.0437079939        4.9271986187
  H         0.5618476779        7.8196387502        4.1520379120
  C         0.5639199887       17.8511729331       15.7347523995
  H         0.5641863663       18.6262987153       14.9587833583
  C        11.3826175566       15.7362015318        7.0400455464
  H        11.3826317711       14.9604361692        7.8154730527
  C        11.3825919045        4.9235105346       17.8538046073
  H        11.3826101012        4.1480905341       18.6294434252
  C         0.5639221059       15.7347518555       17.8511727140
  H         0.5641878072       14.9587826100       18.6262984559
  C         0.5615677685        4.9271957554        7.0437101909
  H         0.5618475723        4.1520341545        7.8196415410
  C        11.3819459623        7.0408354222        7.0408286511
  H        11.3821536535        7.8164277903        7.8164250546
  C        11.3838114827       17.8540422299       17.8540390637
  H        11.3840645713       18.6295735475       18.6295710459
  C         0.5623475294        7.0431041162       17.8515405948
  H         0.5622289632        7.8189479354       18.6267898340
  C         0.5623486093       17.8515438940        7.0430997877
  H         0.5622299317       18.6267901763        7.8189461759
  C        15.7321756622       11.3884442413       15.7357636775
  H        14.9565079704       11.3885101866       14.9602287351
  C        15.7283487678        0.5690233314        4.9256734233
  H        14.9522348563        0.5690868165        4.1506883159
  C         4.9168735210       11.3894590984        4.9247457414
  H         4.1410674083       11.3894790357        4.1494873286
  C         4.9211403027        0.5701944816       15.7353647303
  H         4.1459358636        0.5701602764       14.9594753444
  C        15.7308992458       11.3884806288        7.0408239047
  H        14.9551240967       11.3885473419        7.8162487952
  C        15.7293963063        0.5689921126       17.8506244372
  H        14.9534187111        0.5690298816       18.6257446800
  C         4.9180357393       11.3894580201       17.8543156135
  H         4.1424743424       11.3894986333       18.6298118246
  C         4.9189984920        0.5702079214        7.0431086637
  H         4.1437007796        0.5701749989        7.8188974127
  C         7.0348032276       11.3891960290       15.7368536808
  H         7.8101456487       11.3890226128       14.9609942650
  C         7.0356411541        0.5706067080        4.9267815198
  H         7.8114731192        0.5710165252        4.1515072167
  C        17.8480141169       11.3882105256        4.9235175843
  H        18.6233121383       11.3880298055        4.1477494783
  C        17.8453925882        0.5692886246       15.7336960025
  H        18.6202439529        0.5696543723       14.9574495110
  C         7.0343739632       11.3892366679        7.0415754592
  H         7.8099116796       11.3890862568        7.8172324123
  C         7.0372821148        0.5706172057       17.8520805120
  H         7.8130639856        0.5710203381       18.6273980368
  C        17.8490439773       11.3881975792       17.8532126109
  H        18.6244179375       11.3880173284       18.6289086278
  C        17.8449007234        0.5693092167        7.0421631731
  H        18.6199798061        0.5696486526        7.8181846954
  C        15.7321621394       15.7357733893       11.3884455571
  H        14.9565006185       14.9602320742       11.3885102439
  C        15.7283493520        4.9256745146        0.5690226291
  H        14.9522369731        4.1506893336        0.5690875834
  C         4.9211404579       15.7353654262        0.5701929616
  H         4.1459359897       14.9594759176        0.5701591162
  C         4.9168710239        4.9247462282       11.3894626429
  H         4.1410652367        4.1494867114       11.3894804192
  C         7.0348027975       15.7368541458       11.3891956457
  H         7.8101450109       14.9609948153       11.3890226227
  C         7.0356430410        4.9267824038        0.5706063676
  H         7.8114746660        4.1515075494        0.5710156978
  C        17.8453930176       15.7336951789        0.5692917291
  H        18.6202461117       14.9574511658        0.5696534645
  C        17.8480290142        4.9235362104       11.3882144131
  H        18.6233161707        4.1477569318       11.3880340602
  C        15.7309177084        7.0408377803       11.3884834245
  H        14.9551316803        7.8162508984       11.3885482090
  C        15.7293960321       17.8506236512        0.5689892359
  H        14.9534191787       18.6257467665        0.5690295632
  C         4.9190004867        7.0431096737        0.5702106286
  H         4.1437028642        7.8188972496        0.5701767507
  C         4.9180357515       17.8543159392       11.3894580307
  H         4.1424743145       18.6298123804       11.3894980937
  C         7.0343717508        7.0415770889       11.3892353620
  H         7.8099100743        7.8172334667       11.3890860766
  C         7.0372821428       17.8520809770        0.5706174097
  H         7.8130640020       18.6273985335        0.5710196669
  C        17.8449006991        7.0421642029        0.5693155887
  H        18.6199810156        7.8181855420        0.5696518390
  C        17.8490322909       17.8532246992       11.3881995132
  H        18.6244122071       18.6289139319       11.3880186311
 Kr         0.5109192270       10.7648726446       10.7648724306
