     409
 i =      96, E =    -5186.5721866194
  N         2.9423189266        5.2026497126       16.0078869391
  C         1.6239538665        5.4728867278       16.2747189567
  N        13.7713779002        5.1649560549        5.1649591639
  C        12.4496934072        5.4244083405        5.4244103703
  N        19.6265825294       17.5566286376       16.0014439517
  C        20.9442615863       17.2895523483       16.2736675694
  N         8.8126647057       17.6250566836        5.1449210286
  C        10.1288517929       17.3463229410        5.4165127376
  N        19.6230453802        5.2038871439        6.7599334076
  C        20.9405628408        5.4755573737        6.4915211093
  N         8.8126632260        5.1449241211       17.6250539994
  C        10.1288485155        5.4165142848       17.3463218936
  N         2.9394563415       17.5647398859        6.7572906333
  C         1.6222338637       17.2912906203        6.4882755880
  N        13.7762507111       17.5868272130       17.5868242986
  C        12.4545101579       17.3273815885       17.3273798447
  N        15.9372494227        3.0340629295        5.1904057751
  C        16.2025134794        1.7176959819        5.4673888052
  N        15.8946786139       13.8583287936       16.0124192200
  C        16.1645605482       12.5396060962       16.2789725898
  N        15.9354397570       19.7230221568       17.5674095541
  C        16.2012397124       21.0396956343       17.2917235257
  N        15.8919362785        8.8970886725        6.7403809064
  C        16.1629259893       10.2164412781        6.4757580079
  N         6.6258974774       19.7305497965        5.1897350429
  C         6.3598579462       21.0460284920        5.4672650875
  N         6.6581314774        8.9010784862       16.0227096399
  C         6.3876829846       10.2209390244       16.2844691925
  N         6.6312473264        3.0396387743       17.5774796567
  C         6.3668606948        1.7237662535       17.2996424675
  N         6.6709231340       13.8626307669        6.7611112652
  C         6.3974086228       12.5440159841        6.4959553333
  N         5.0916076287       16.0058760411        3.0427032002
  C         5.3609366084       16.2737296892        1.7245817255
  N         5.1071776297        5.2132423240       13.8628272860
  C         5.3756085467        5.4856260314       12.5450395927
  N        17.4778074583       15.9990999795       19.7200696035
  C        17.2090197892       16.2676948632       21.0386731199
  N        17.4598118589        5.1968924362        8.9015109858
  C        17.1864106305        5.4671925618       10.2178442367
  N         5.0850353277        6.7607405210       19.7265438891
  C         5.3538524784        6.4931392872       21.0445688687
  N         5.0940823533       17.5692185325        8.9078556943
  C         5.3655079185       17.2942373624       10.2243240978
  N        17.4787054377        6.7598927540        3.0373344241
  C        17.2094823383        6.4921520688        1.7189387730
  N        17.4626084884       17.5562753332       13.8549788766
  C        17.1881181188       17.2873866522       12.5383949258
  N         5.0841965228        3.0422054391        6.7611277068
  C         5.3530352682        1.7240425315        6.4936912967
  N         5.0999025135       13.8632771212       17.5636330230
  C         5.3684826720       12.5457288241       17.2911546069
  N        17.4781184839       19.7188227679        6.7623013958
  C        17.2096494023       21.0375486254        6.4936559837
  N        17.4596403612        8.9021450721       17.5551189341
  C        17.1860167688       10.2187225973       17.2864899216
  N         5.0925385753       19.7266543699       16.0080385973
  C         5.3617814799       21.0447981211       16.2751095624
  N         5.1015467643        8.9068218103        5.2058293680
  C         5.3727589275       10.2233530415        5.4817812737
  N        17.4772579936        3.0383333040       16.0003101473
  C        17.2082690409        1.7200533739       16.2686228927
  N        17.4628986145       13.8540604644        5.1977105133
  C        17.1885901046       12.5375322676        5.4673128975
  N         2.9426596018       16.0119941260       17.5675489787
  C         1.6249109615       16.2787734375       17.2946887293
  N        13.7524328253       16.0278783981        6.7213337525
  C        12.4389729064       16.3095686656        6.4413732973
  N        19.6257909802       15.9995852803        5.2024275788
  C        20.9431066134       16.2706274421        5.4729808517
  N         8.8001307952       16.0660584964       16.0660621521
  C        10.1211046914       16.3281197796       16.3281225492
  N        19.6236344032        6.7588848688       17.5542450812
  C        20.9416167273        6.4891104038       17.2863680740
  N         8.7976102666        6.6887167405        6.6887136535
  C        10.1179393602        6.4252403800        6.4252379054
  N         2.9390887805        6.7609876390        5.2050878112
  C         1.6213370641        6.4919612742        5.4759804627
  N        13.7524320028        6.7213353556       16.0278786093
  C        12.4389777966        6.4413712634       16.3095723272
  N        15.9368745337        5.1929847463       19.7224280319
  C        16.2026517765        5.4688417665       21.0388534015
  N        15.8913437192       16.0119468442        8.8986720989
  C        16.1622447569       16.2782666452       10.2177038829
  N        15.9340964986       17.5682026315        3.0358237061
  C        16.2002973794       17.2923801800        1.7191717536
  N        15.8956230207        6.7422452150       13.8572932038
  C        16.1654283324        6.4761974975       12.5384182099
  N         6.6224797334        5.1877772026        3.0377878143
  C         6.3579853357        5.4669259294        1.7225254851
  N         6.6633017070       16.0158954914       13.8638881063
  C         6.3903106913       16.2808420066       12.5449829077
  N         6.6345900112       17.5779698412       19.7306315017
  C         6.3686064029       17.3002889587       21.0464357739
  N         6.6669366230        6.7515702128        8.8998074209
  C         6.3952720018        6.4912006528       10.2194997485
  N        19.6236354695       17.5542437772        6.7588837255
  C        20.9416181247       17.2863683561        6.4891103700
  N         8.8162380673       17.6199777645       17.6199751823
  C        10.1319594867       17.3439487602       17.3439472889
  N         2.9390887598        5.2050879322        6.7609869687
  C         1.6213379801        5.4759804435        6.4919609877
  N        13.7731810969        5.1712520693       17.5896682571
  C        12.4515419155        5.4298838898       17.3288959536
  N         2.9426610111       17.5675496485       16.0119940295
  C         1.6249098346       17.2946896234       16.2787729130
  N        13.7731831105       17.5896673393        5.1712524260
  C        12.4515451152       17.3288968143        5.4298823106
  N        19.6257877589        5.2024276980       15.9995854260
  C        20.9430994653        5.4729848606       16.2706310966
  N         8.8101483743        5.1345625740        5.1345662727
  C        10.1266951969        5.4093458999        5.4093480802
  N         6.6345887369       19.7306341872       17.5779690701
  C         6.3686013160       21.0464327209       17.3002858230
  N         6.6669373409        8.8998093904        6.7515712191
  C         6.3952723158       10.2195058212        6.4912097113
  N         6.6224795595        3.0377877453        5.1877773756
  C         6.3579902608        1.7225165491        5.4669200633
  N         6.6633020772       13.8638887258       16.0158947663
  C         6.3903057157       12.5449924948       16.2808481593
  N        15.9340941833        3.0358235327       17.5682043353
  C        16.2002931347        1.7191669586       17.2923841072
  N        15.8956251017       13.8572931847        6.7422438879
  C        16.1654318709       12.5384223486        6.4761946639
  N        15.9368766228       19.7224272913        5.1929850459
  C        16.2026559278       21.0388466555        5.4688450547
  N        15.8913422863        8.8986720404       16.0119467654
  C        16.1622417663       10.2177094177       16.2782644296
  N        17.4781183385        6.7623023885       19.7188241259
  C        17.2096512671        6.4936585741       21.0375544029
  N        17.4596400231       17.5551169088        8.9021439201
  C        17.1860141140       17.2864864676       10.2187171207
  N         5.0841971619        6.7611263393        3.0422062216
  C         5.3530415410        6.4936852292        1.7240519664
  N         5.0999011425       17.5636345710       13.8632767890
  C         5.3684776262       17.2911583256       12.5457234332
  N        17.4772587484       16.0003099246        3.0383318798
  C        17.2082673011       16.2686251012        1.7200577843
  N        17.4628981480        5.1977095637       13.8540611981
  C        17.1885920864        5.4673100836       12.5375273965
  N         5.0925390929       16.0080383669       19.7266547153
  C         5.3617765972       16.2751024405       21.0448078241
  N         5.1015476673        5.2058282101        8.9068210471
  C         5.3727682380        5.4817804204       10.2233443653
  N        17.4778075435       19.7200704176       15.9990998644
  C        17.2090222292       21.0386774165       16.2676923416
  N        17.4598119538        8.9015103771        5.1968924193
  C        17.1864082345       10.2178398016        5.4671952797
  N         5.0916066261        3.0427038604       16.0058773901
  C         5.3609406907        1.7246033911       16.2737370071
  N         5.1071760307       13.8628275552        5.2132419924
  C         5.3755988602       12.5450316078        5.4856247658
  N        17.4787053929        3.0373343417        6.7598931940
  C        17.2094802794        1.7189434131        6.4921500451
  N        17.4626087154       13.8549787041       17.5562751051
  C        17.1881208315       12.5383893886       17.2873892826
  N         5.0850344532       19.7265430919        6.7607419725
  C         5.3538479770       21.0445809076        6.4931439653
  N         5.0940829392        8.9078569557       17.5692180455
  C         5.3655112848       10.2243204630       17.2942351465
  N        19.6230459448        6.7599334367        5.2038870318
  C        20.9405624208        6.4915213187        5.4755571625
  N         8.7985717967        6.6923894438       16.0644544137
  C        10.1191926124        6.4283589974       16.3263937320
  N         2.9394537804        6.7572899463       17.5647397525
  C         1.6222301927        6.4882758129       17.2912907000
  N        13.7510019727        6.7203633006        6.7203608825
  C        12.4375286371        6.4396826995        6.4396805777
  N         2.9423219820       16.0078847178        5.2026470672
  C         1.6239436733       16.2747145251        5.4728817651
  N        13.7542049117       16.0304491602       16.0304511591
  C        12.4409930207       16.3119011908       16.3119032371
  N        19.6265826215       16.0014439424       17.5566278075
  C        20.9442633677       16.2736683701       17.2895510408
  N         8.7985729650       16.0644530742        6.6923892813
  C        10.1192040613       16.3263899178        6.4283614621
  N         6.6312518410       17.5774817502        3.0396359205
  C         6.3668668167       17.2996456654        1.7237629276
  N         6.6709227289        6.7611101642       13.8626287829
  C         6.3974078296        6.4959470911       12.5440245333
  N         6.6258929620        5.1897398207       19.7305487125
  C         6.3598519485        5.4672716933       21.0460171014
  N         6.6581346454       16.0227061410        8.9010784285
  C         6.3876897950       16.2844611988       10.2209544449
  N        15.9354398260       17.5674084253       19.7230214813
  C        16.2012427174       17.2917200233       21.0396898703
  N        15.8919351387        6.7403809890        8.8970888372
  C        16.1629226063        6.4757605523       10.2164460611
  N        15.9372485353        5.1904052392        3.0340630153
  C        16.2025096124        5.4673851902        1.7176919015
  N        15.8946786292       16.0124195282       13.8583289017
  C        16.1645636742       16.2789755333       12.5396097063
 Zn        14.5988811350       14.7274468066       14.7274463481
 Cl        13.3825265831       13.4876171921       13.4876176641
 Zn        14.6545284203        3.8853241434        3.8853255993
 Cl        13.4345311126        2.6458229282        2.6458238961
 Zn         3.8068685003       14.7153026663        3.9139603520
 Cl         2.5882085888       13.4592146100        2.6922094981
 Zn         3.8068673408        3.9139641251       14.7153050357
 Cl         2.5882038772        2.6922061974       13.4592116212
 Zn         7.9633573440        8.0012603953       14.7813323527
 Cl         9.4466786318        9.1526545529       13.7786787590
 Zn         7.9140433427       18.8973758798        3.8729797190
 Cl         9.0928454989       20.1560814999        2.6158377422
 Zn        18.7637621744        8.0531224940        3.9078230485
 Cl        20.0009426076        9.2909038244        2.6860439981
 Zn        18.7642061494       18.8442796652       14.7097679193
 Cl        20.0000692655       20.0674049179       13.4703850753
 Zn         7.9633620467       14.7813312977        8.0012621327
 Cl         9.4466786372       13.7786783096        9.1526494562
 Zn         7.9140359491        3.8729873218       18.8973686236
 Cl         9.0928389467        2.6158427614       20.1560771430
 Zn        18.7642065257       14.7097684683       18.8442794714
 Cl        20.0000686306       13.4703864396       20.0674029879
 Zn        18.7637617914        3.9078221311        8.0531225813
 Cl        20.0009428808        2.6860434836        9.2909054131
 Zn        14.5964137687        8.0189115361        8.0189104517
 Cl        13.3774400096        9.2586973883        9.2586956718
 Zn        14.6535256679       18.8733136104       18.8733143745
 Cl        13.4268171735       20.1089842373       20.1089843693
 Zn         3.7943324910        8.0522379419       18.8603669944
 Cl         2.5666457818        9.2922105771       20.0887259500
 Zn         3.7943291229       18.8603723110        8.0522408307
 Cl         2.5666440037       20.0887284933        9.2922132468
 Zn        14.5979545573       14.7264463142        8.0212064581
 Cl        13.3797837893       13.4879332210        9.2617991922
 Zn        14.6529495046        3.8900062200       18.8754835997
 Cl        13.4284157981        2.6506755636       20.1100803218
 Zn         3.8017835295       14.7184921007       18.8588870305
 Cl         2.5788160292       13.4730663876       20.0870963817
 Zn         3.7982551818        3.9114783763        8.0545672054
 Cl         2.5757197453        2.6897832444        9.3059976971
 Zn         7.9673424787        7.9855210611        7.9855214224
 Cl         9.4602196179        9.0583754749        9.0583976454
 Zn         7.9229668641       18.8931182464       18.8931163178
 Cl         9.1058953849       20.1490827225       20.1490806450
 Zn        18.7629712630        8.0545050468       18.8417340240
 Cl        19.9989350147        9.2904236394       20.0677994987
 Zn        18.7629709149       18.8417318360        8.0545033833
 Cl        19.9989357536       20.0677998824        9.2904243575
 Zn        14.5979509703        8.0212075205       14.7264457856
 Cl        13.3797827702        9.2618011820       13.4879321332
 Zn        14.6529523129       18.8754820696        3.8900072995
 Cl        13.4284163382       20.1100800849        2.6506749326
 Zn         3.7982551439        8.0545665017        3.9114754424
 Cl         2.5757197830        9.3059982451        2.6897839994
 Zn         3.8017847646       18.8588915658       14.7184924686
 Cl         2.5788134726       20.0870987032       13.4730638165
 Zn         7.9610517898       14.7718654459       14.7718666386
 Cl         9.4353592978       13.6861711757       13.6861527420
 Zn         7.9065731588        3.8616603925        3.8616601863
 Cl         9.0802226208        2.6020980127        2.6020984038
 Zn        18.7645610329       14.7102956894        3.9071704114
 Cl        20.0010719387       13.4696624965        2.6870644521
 Zn        18.7645624195        3.9071707072       14.7102957582
 Cl        20.0010714601        2.6870631888       13.4696622907
 Zn         5.8774129807        5.9597672894       16.8142876525
 Zn        16.6911942977       16.7824077576       16.7824079423
 Zn        16.6918857756        5.9646482674        5.9646487960
 Zn         5.8774172008       16.8142840177        5.9597653868
 Zn         5.8739665496        5.9556686370        5.9556679588
 Zn        16.6905760718       16.7820060559        5.9668401273
 Zn         5.8809905145       16.8116928011       16.8116912230
 Zn        16.6905725300        5.9668401731       16.7820073497
  N         3.6877840470        5.9796377947       16.7880564268
  N        14.5077383966        5.9478829571        5.9478835828
  N        18.8799129018       16.7775410684       16.7775413023
  N         8.0596144766       16.8479300640        5.9184526176
  N        18.8766999509        5.9810293929        5.9810300232
  N         8.0596168637        5.9184500422       16.8479346029
  N         3.6877894978       16.7880491484        5.9796314715
  N        14.5114190114       16.8031589971       16.8031583086
  N        16.7087881333        3.7822848786        5.9723108880
  N        16.6798053480       14.6028498025       16.7847677979
  N        16.7070557680       18.9746898129       16.7855236910
  N        16.6766716020        8.1528101520        5.9671794305
  N         5.8548070455       18.9827331700        5.9719596057
  N         5.8762517850        8.1576066601       16.8002577004
  N         5.8602080447        3.7872807339       16.7951208164
  N         5.8901085671       14.6099274407        5.9838953610
  N         5.8602040553       16.7951142959        3.7872834782
  N         5.8901072181        5.9838977217       14.6099250022
  N        16.7070559665       16.7855228529       18.9746908770
  N        16.6766713443        5.9671791675        8.1528093132
  N         5.8548060260        5.9719600370       18.9827413843
  N         5.8762582873       16.8002511966        8.1576012366
  N        16.7087877810        5.9723102314        3.7822866591
  N        16.6798047120       16.7847676795       14.6028487383
  N         5.8523191182        3.7860396489        5.9704926030
  N         5.8828701424       14.6106275129       16.7928294590
  N        16.7077932166       18.9737495821        5.9752273056
  N        16.6765971205        8.1539638369       16.7841614503
  N         5.8626887450       18.9827653378       16.7963929003
  N         5.8843713928        8.1563093627        5.9734660847
  N        16.7062204428        3.7836731571       16.7864387531
  N        16.6801346487       14.6018930800        5.9692212914
  N         3.6896933269       16.7913006227       16.7912982791
  N        14.5091565966       16.8036513219        5.9516383823
  N        18.8781467709       16.7760922451        5.9805573877
  N         8.0621595217       16.8452184170       16.8452189788
  N        18.8781444685        5.9805594619       16.7760947411
  N         8.0578180892        5.9103087376        5.9103095446
  N         3.6859237081        5.9824468206        5.9824464796
  N        14.5091551673        5.9516362193       16.8036547872
  N        16.7077912577        5.9752270221       18.9737482002
  N        16.6765981500       16.7841604544        8.1539661561
  N        16.7062216778       16.7864379631        3.7836706622
  N        16.6801338875        5.9692206458       14.6018958679
  N         5.8523196242        5.9704907105        3.7860375357
  N         5.8828709011       16.7928297827       14.6106290647
  N         5.8626867438       16.7963910281       18.9827613693
  N         5.8843687569        5.9734681124        8.1563101654
  C        11.2745678058       15.7704135248       15.7704188366
  H        11.2568212025       14.9951382572       14.9951470412
  C        11.2951887195        4.8666797678        4.8666837734
  H        11.3081562624        4.0914797526        4.0914860724
  C         0.4644376241       15.7217102722        4.9230938224
  H         0.4647957292       14.9452500574        4.1484764700
  C         0.4644349922        4.9230904338       15.7217061353
  H         0.4647949347        4.1484749391       14.9452474260
  C        11.2733044874        6.9818709931       15.7659791108
  H        11.2567512790        7.7566042774       14.9901979753
  C        11.2973495665       17.8896865044        4.8747889588
  H        11.3102078803       18.6677936256        4.1024197496
  C         0.4609268170        7.0426299347        4.9258237709
  H         0.4601254469        7.8185921687        4.1506732610
  C         0.4645640882       17.8423494892       15.7254607026
  H         0.4637850244       18.6172979507       14.9492908563
  C        11.2733068865       15.7659828004        6.9818652984
  H        11.2567535599       14.9901989786        7.7566003907
  C        11.2973444128        4.8747898018       17.8896859249
  H        11.3102042303        4.1024216078       18.6677914415
  C         0.4645631536       15.7254611859       17.8423481653
  H         0.4637851669       14.9492923717       18.6172952834
  C         0.4609268032        4.9258236063        7.0426297983
  H         0.4601259926        4.1506724808        7.8185924758
  C        11.2723248980        6.9819342692        6.9819285810
  H        11.2561842463        7.7571854427        7.7571755211
  C        11.3009019622       17.8859413725       17.8859377399
  H        11.3141297673       18.6611938770       18.6611877765
  C         0.4609471849        7.0392444911       17.8391489652
  H         0.4589717371        7.8148844118       18.6146945063
  C         0.4609452707       17.8391491758        7.0392443395
  H         0.4589731481       18.6146961605        7.8148855394
  C        15.6092053759       11.3792960763       15.7318866231
  H        14.8294551765       11.3806848838       14.9604800339
  C        15.6555524006        0.5579415880        4.9137252678
  H        14.8860212252        0.5577256760        4.1320120168
  C         4.8210301945       11.3856889376        4.9372768546
  H         4.0431733335       11.3881545196        4.1636581994
  C         4.8165483810        0.5642376548       15.7176094876
  H         4.0477954639        0.5632970118       14.9355167337
  C        15.6101518541       11.3778471113        7.0230965673
  H        14.8303603855       11.3788698671        7.7946219794
  C        15.6533698920        0.5590975926       17.8458777912
  H        14.8829336327        0.5588276045       18.6266357487
  C         4.8141039377       11.3863970814       17.8396711131
  H         4.0368054544       11.3886548498       18.6136837952
  C         4.8088175162        0.5640362272        7.0506551787
  H         4.0403237341        0.5633214860        7.8329966943
  C         6.9428664572       11.3815300846       15.7371903213
  H         7.7319554777       11.3774377877       14.9764251012
  C         6.9054801195        0.5646087161        4.9112194032
  H         7.6722987792        0.5653686179        4.1265165614
  C        17.7416542840       11.3772566629        4.9208998527
  H        18.5223120211       11.3766763604        4.1506210546
  C        17.7539940186        0.5597347071       15.7126338284
  H        18.5235831378        0.5606758114       14.9313479477
  C         6.9493530190       11.3801968105        7.0392605993
  H         7.7360357144       11.3759820883        7.8020561773
  C         6.9146354020        0.5656275480       17.8551765289
  H         7.6822399448        0.5667170231       18.6390661671
  C        17.7415571825       11.3779135553       17.8333168940
  H        18.5227983232       11.3770051963       18.6031511847
  C        17.7544075888        0.5586139896        7.0488950451
  H        18.5234998008        0.5595201144        7.8306404090
  C        15.6092032038       15.7318839754       11.3792956346
  H        14.8294557466       14.9604799552       11.3806845478
  C        15.6555545335        4.9137280100        0.5579422074
  H        14.8860210740        4.1320123284        0.5577264310
  C         4.8165588416       15.7176173402        0.5642379345
  H         4.0478015976       14.9355201090        0.5632950125
  C         4.8210318617        4.9372663619       11.3856895653
  H         4.0431778542        4.1636495483       11.3881541912
  C         6.9428594888       15.7371953239       11.3815303223
  H         7.7319526764       14.9764259934       11.3774407497
  C         6.9054850967        4.9112153084        0.5646053694
  H         7.6722990988        4.1265168836        0.5653660023
  C        17.7539970517       15.7126311232        0.5597339059
  H        18.5235832384       14.9313484510        0.5606748371
  C        17.7416511063        4.9209025024       11.3772570000
  H        18.5223118855        4.1506208691       11.3766766920
  C        15.6101533961        7.0230943517       11.3778463838
  H        14.8303595368        7.7946221743       11.3788696440
  C        15.6533676875       17.8458799364        0.5590980509
  H        14.8829334156       18.6266357891        0.5588281410
  C         4.8088121294        7.0506606555        0.5640354331
  H         4.0403231586        7.8329962651        0.5633222957
  C         4.8141053578       17.8396681283       11.3863990164
  H         4.0368032547       18.6136847476       11.3886529530
  C         6.9493617104        7.0392590925       11.3801959931
  H         7.7360414313        7.8020518766       11.3759803550
  C         6.9146362729       17.8551745046        0.5656206380
  H         7.6822437016       18.6390673030        0.5667136504
  C        17.7544041837        7.0488916250        0.5586153307
  H        18.5234983614        7.8306388216        0.5595211208
  C        17.7415605184       17.8333198247       11.3779125151
  H        18.5227999418       18.6031523047       11.3770044457
 Kr         9.0565641001       11.3641491716       11.3641477201
