     409
 i =      96, E =    -5186.5868582854
  N         2.9925734011        5.2103755238       16.0254204715
  C         1.6742526639        5.4809049837       16.2916795539
  N        13.7989836457        5.2062952622        5.2065244787
  C        12.4821347407        5.4786076030        5.4785836656
  N        19.6835895989       17.5729262981       16.0165593339
  C        21.0014938789       17.3036565639       16.2875498973
  N         8.8544693795       17.5775434871        5.2134116283
  C        10.1720944054       17.3048974304        5.4797929408
  N        19.6637594219        5.2032165989        6.7592633432
  C        20.9816589074        5.4775768497        6.4936395324
  N         8.8544881315        5.2133304457       17.5774788790
  C        10.1721118229        5.4797856166       17.3048886859
  N         2.9890035675       17.5806151950        6.7669413571
  C         1.6717770227       17.3074602186        6.4970552461
  N        13.8189355281       17.5732080846       17.5732077932
  C        12.5009761680       17.3042150307       17.3042175417
  N        15.9492461051        3.0461754921        5.2040644963
  C        16.2197561664        1.7283845170        5.4744613882
  N        15.9680935490       13.8654959924       16.0160515462
  C        16.2371102863       12.5479774460       16.2859086189
  N        15.9692886486       19.7285498491       17.5711764282
  C        16.2350277122       21.0467074311       17.2983896428
  N        15.9557949311        8.9115931817        6.7597013925
  C        16.2266703034       10.2285539554        6.4892613704
  N         6.7037664789       19.7404400536        5.2138394812
  C         6.4321767528       21.0580701529        5.4839287505
  N         6.7038692154        8.9168493647       16.0227766749
  C         6.4340994454       10.2343548393       16.2916637488
  N         6.7049265994        3.0574730022       17.5819124548
  C         6.4388100647        1.7390751223       17.3099217103
  N         6.6971530444       13.8725882581        6.7694690785
  C         6.4240849644       12.5555674747        6.5017304039
  N         5.1493310546       16.0253737948        3.0551851634
  C         5.4229651799       16.2936920959        1.7376713273
  N         5.1431775362        5.2124803949       13.8744825597
  C         5.4091750646        5.4847801540       12.5567017129
  N        17.5246930125       16.0145605557       19.7302225295
  C        17.2507642080       16.2820751032       21.0478923879
  N        17.5095170277        5.2021589691        8.9096192136
  C        17.2417181729        5.4724421341       10.2273706185
  N         5.1461317892        6.7682654652       19.7384240862
  C         5.4154500607        6.4993167888       21.0565998314
  N         5.1484061563       17.5796988400        8.9181543873
  C         5.4189333317       17.3085858671       10.2353444265
  N        17.5062252021        6.7586453501        3.0473054444
  C        17.2364313919        6.4897465323        1.7293425566
  N        17.5250166264       17.5712290363       13.8645020305
  C        17.2535673177       17.3015118504       12.5471646935
  N         5.1384862122        3.0554915917        6.7689597381
  C         5.4114143960        1.7379843510        6.4998042341
  N         5.1550311395       13.8733008994       17.5797584715
  C         5.4219619725       12.5554678696       17.3084434614
  N        17.5145840875       19.7307148472        6.7574961716
  C        17.2408335754       21.0481695243        6.4892511900
  N        17.5179750470        8.9092126126       17.5732879067
  C        17.2502913814       10.2269381786       17.3022534386
  N         5.1574959615       19.7379766648       16.0240060332
  C         5.4270316137       21.0561226285       16.2931306569
  N         5.1355362075        8.9196767516        5.2149343266
  C         5.4056051118       10.2369021572        5.4857909416
  N        17.5173550124        3.0477100185       16.0139797221
  C        17.2469978410        1.7294972077       16.2819470080
  N        17.5173791723       13.8647752903        5.2037952943
  C        17.2453613161       12.5474506189        5.4728902663
  N         3.0010582137       16.0254042667       17.5813926649
  C         1.6831317080       16.2917779410       17.3077803040
  N        13.8100039488       16.0161322071        6.7600772748
  C        12.4925839514       16.2863483429        6.4912540679
  N        19.6756993484       16.0169280044        5.2046684526
  C        20.9929817240       16.2873022050        5.4775689862
  N         8.8612718087       16.0211073408       16.0211044418
  C        10.1790393061       16.2902091321       16.2902118145
  N        19.6720708760        6.7593617105       17.5742738724
  C        20.9905168448        6.4930747533       17.3038971462
  N         8.8478177803        6.7708560816        6.7709947325
  C        10.1647148013        6.4993194778        6.4993672880
  N         2.9806667250        6.7683703009        5.2123419447
  C         1.6629278180        6.4981070231        5.4820886458
  N        13.8100187227        6.7599345119       16.0159760080
  C        12.4926091558        6.4912800107       16.2863579440
  N        15.9584891117        5.2016068850       19.7285158790
  C        16.2244835818        5.4735544847       21.0468197018
  N        15.9627988755       16.0166746551        8.9108643969
  C        16.2344861075       16.2861000048       10.2279352331
  N        15.9607102860       17.5695197904        3.0456680232
  C        16.2307886349       17.2977780836        1.7281503340
  N        15.9609476260        6.7593038733       13.8656228141
  C        16.2294438104        6.4890347031       12.5482393190
  N         6.6946531351        5.2135813421        3.0579776345
  C         6.4276625506        5.4840603844        1.7396102597
  N         6.7083254975       16.0219491489       13.8715490519
  C         6.4364318234       16.2910472647       12.5543632612
  N         6.7131765663       17.5805596760       19.7396037110
  C         6.4429112209       17.3093572214       21.0573300815
  N         6.6907210255        6.7714465457        8.9189426137
  C         6.4209659138        6.5023672783       10.2361696242
  N        19.6720772811       17.5741965888        6.7594446934
  C        20.9905223721       17.3038980177        6.4930589356
  N         8.8633690949       17.5774429652       17.5774455562
  C        10.1805473965       17.3062699272       17.3062767899
  N         2.9806596350        5.2123444143        6.7683624541
  C         1.6629262329        5.4820942421        6.4980982636
  N        13.8094546425        5.2036587134       17.5716463985
  C        12.4921530855        5.4754350645       17.3025384741
  N         3.0010608109       17.5814018889       16.0253981783
  C         1.6831306925       17.3077845353       16.2917757900
  N        13.8094356138       17.5718083505        5.2037928141
  C        12.4921257084       17.3025269420        5.4754094505
  N        19.6756842145        5.2046012472       16.0170091866
  C        20.9929772236        5.4775874617       16.2872942714
  N         8.8437760410        5.2155429032        5.2156830311
  C        10.1619574674        5.4834444392        5.4834934773
  N         6.7131771310       19.7396065558       17.5805528610
  C         6.4429110657       21.0573328916       17.3093571066
  N         6.6906775353        8.9189439840        6.7714958295
  C         6.4209656163       10.2361797861        6.5023629076
  N         6.6947038178        3.0579793852        5.2136203963
  C         6.4276653758        1.7396162522        5.4840525829
  N         6.7083276615       13.8715545818       16.0219375868
  C         6.4364307060       12.5543645523       16.2910439673
  N        15.9606407322        3.0456905949       17.5694322954
  C        16.2308014414        1.7281860683       17.2977847753
  N        15.9611936359       13.8656217840        6.7595424405
  C        16.2294560143       12.5482373089        6.4890303887
  N        15.9584195372       19.7285447242        5.2016526559
  C        16.2244550374       21.0468496265        5.4735665929
  N        15.9627564476        8.9108570687       16.0167262757
  C        16.2344923260       10.2279403195       16.2860953019
  N        17.5146378314        6.7574501607       19.7306899331
  C        17.2408572344        6.4892447655       21.0481398146
  N        17.5180229997       17.5732486252        8.9092128930
  C        17.2502807286       17.3022574499       10.2269323524
  N         5.1384344930        6.7689147395        3.0554889706
  C         5.4114089037        6.4998094734        1.7379789415
  N         5.1550268646       17.5797684382       13.8732996484
  C         5.4219618919       17.3084454249       12.5554613795
  N        17.5174306646       16.0140626022        3.0476872102
  C        17.2469845675       16.2819419423        1.7294625272
  N        17.5171304519        5.2035623340       13.8647704413
  C        17.2453544109        5.4728900236       12.5474523005
  N         5.1574934067       16.0240122384       19.7379740823
  C         5.4270312451       16.2931315321       21.0561188709
  N         5.1355748028        5.2148900871        8.9196706340
  C         5.4056024270        5.4857985799       10.2368969569
  N        17.5246808280       19.7302329062       16.0145496411
  C        17.2507523920       21.0479095339       16.2820604284
  N        17.5096894768        8.9096311687        5.2023311925
  C        17.2417299225       10.2273945185        5.4724400925
  N         5.1493353808        3.0551750823       16.0253628794
  C         5.4229630417        1.7376740198       16.2936962435
  N         5.1431517657       13.8745023032        5.2125046826
  C         5.4091721536       12.5567088651        5.4847771135
  N        17.5061181543        3.0473140541        6.7587535918
  C        17.2364416111        1.7293706656        6.4897243542
  N        17.5250071846       13.8645169294       17.5712359826
  C        17.2535561912       12.5471763588       17.3015204757
  N         5.1461755812       19.7384147929        6.7682976770
  C         5.4154519732       21.0566005044        6.4993108283
  N         5.1483802593        8.9181662580       17.5796957713
  C         5.4189347605       10.2353551411       17.3085926015
  N        19.6637676740        6.7592778637        5.2032068418
  C        20.9816588830        6.4936574436        5.4775613135
  N         8.8553060798        6.7660736976       16.0187726852
  C        10.1725859520        6.4943053657       16.2874805688
  N         2.9889986963        6.7669234351       17.5806488472
  C         1.6717778055        6.4970539304       17.3074714138
  N        13.8029172794        6.7624607150        6.7626932602
  C        12.4849064790        6.4946899735        6.4946668388
  N         2.9925844019       16.0254051199        5.2103984665
  C         1.6742540485       16.2916747926        5.4809034757
  N        13.8165651687       16.0175036742       16.0174960896
  C        12.4994245531       16.2882747791       16.2882725252
  N        19.6835873926       16.0165560495       17.5729267351
  C        21.0014955100       16.2875504455       17.3036538418
  N         8.8552902000       16.0188478101        6.7661426071
  C        10.1725732620       16.2874922039        6.4943097030
  N         6.7049122467       17.5819106047        3.0574830336
  C         6.4388118772       17.3099155642        1.7390729661
  N         6.6971920427        6.7694525549       13.8725723793
  C         6.4240919496        6.5017330329       12.5555576435
  N         6.7037355022        5.2138008775       19.7404506856
  C         6.4321785824        5.4839362497       21.0580716709
  N         6.7038874479       16.0227908137        8.9168333561
  C         6.4340972650       16.2916599772       10.2343490599
  N        15.9693020038       17.5711850078       19.7285392170
  C        16.2350412617       17.2984018799       21.0466882776
  N        15.9556116844        6.7595381060        8.9115886418
  C        16.2266542008        6.4892659044       10.2285283838
  N        15.9493644087        5.2039541264        3.0461662226
  C        16.2197503971        5.4744781755        1.7283532711
  N        15.9681053716       16.0160441268       13.8654864993
  C        16.2371224617       16.2858986393       12.5479668972
 Zn        14.6722254890       14.7233654444       14.7233579733
 Cl        13.4392091995       13.4915620870       13.4915648246
 Zn        14.6594089833        3.9104533098        3.9104418752
 Cl        13.4174845784        2.6829885429        2.6829932986
 Zn         3.8533190878       14.7337090653        3.9157585650
 Cl         2.6209652135       13.4986227242        2.6863534699
 Zn         3.8533103136        3.9157489095       14.7336972800
 Cl         2.6209579043        2.6863447217       13.4986163087
 Zn         7.9961217060        8.0588851123       14.7253763959
 Cl         9.2180889472        9.2943075053       13.4861447520
 Zn         7.9969138719       18.8751983547        3.9241263978
 Cl         9.2346446624       20.1014384746        2.6907639508
 Zn        18.8003094862        8.0501051149        3.9070828086
 Cl        20.0310359612        9.2844094063        2.6751307300
 Zn        18.8193485216       18.8666756190       14.7235341573
 Cl        20.0490848324       20.0940255100       13.4839831661
 Zn         7.9961123699       14.7253930180        8.0588752735
 Cl         9.2180777285       13.4861545246        9.2942940427
 Zn         7.9969229461        3.9241213221       18.8752102515
 Cl         9.2346495212        2.6907579103       20.1014482829
 Zn        18.8193485920       14.7235409963       18.8666705497
 Cl        20.0490820998       13.4839879957       20.0940195893
 Zn        18.8003046163        3.9071124511        8.0500796697
 Cl        20.0310194731        2.6751586232        9.2843912455
 Zn        14.6640591324        8.0552999357        8.0552775795
 Cl        13.4337067915        9.2885750934        9.2885747813
 Zn        14.6785330498       18.8671564577       18.8671572283
 Cl        13.4432798413       20.0979325700       20.0979344812
 Zn         3.8520066698        8.0586617441       18.8735741379
 Cl         2.6250619788        9.2984530521       20.1036153688
 Zn         3.8520142425       18.8735661389        8.0586467968
 Cl         2.6250722481       20.1036050303        9.2984456526
 Zn        14.6681008505       14.7228770139        8.0542720939
 Cl        13.4353143226       13.4912949888        9.2865456382
 Zn        14.6683914241        3.9066512233       18.8644492573
 Cl        13.4302360891        2.6771497681       20.0934032630
 Zn         3.8638356956       14.7321705760       18.8746845867
 Cl         2.6324863794       13.4969885434       20.1052614697
 Zn         3.8446240133        3.9190416116        8.0592086298
 Cl         2.6146898223        2.6891526058        9.2965993297
 Zn         7.9870327693        8.0622773967        8.0622673693
 Cl         9.2050752992        9.3018250482        9.3018239889
 Zn         8.0043155328       18.8732251342       18.8732247508
 Cl         9.2468909765       20.1003666067       20.1003668111
 Zn        18.8096478859        8.0498233007       18.8700146516
 Cl        20.0416605005        9.2859305012       20.0985540725
 Zn        18.8096568721       18.8700254384        8.0498255207
 Cl        20.0416672089       20.0985583580        9.2859346745
 Zn        14.6681256904        8.0542653858       14.7228938821
 Cl        13.4353306682        9.2865346027       13.4913128042
 Zn        14.6683702732       18.8644772572        3.9066181097
 Cl        13.4302103224       20.0934271013        2.6771208139
 Zn         3.8446175325        8.0592066660        3.9190360981
 Cl         2.6146792829        9.2965995152        2.6891508056
 Zn         3.8638390219       18.8746834106       14.7321702787
 Cl         2.6324895090       20.1052591655       13.4969891218
 Zn         8.0014132247       14.7265857092       14.7265935699
 Cl         9.2277716297       13.4914672888       13.4914694877
 Zn         7.9867559784        3.9237606367        3.9237403722
 Cl         9.2225582352        2.6926284106        2.6926271131
 Zn        18.8139324653       14.7239006008        3.9106180781
 Cl        20.0400820052       13.4850908229        2.6790600462
 Zn        18.8139214353        3.9106564551       14.7239225585
 Cl        20.0400608572        2.6790810621       13.4851153628
 Zn         5.9241562123        5.9932756969       16.8082474129
 Zn        16.7539761156       16.7928582061       16.7928512912
 Zn        16.7268076148        5.9813809379        5.9813663550
 Zn         5.9241586358       16.8082507675        5.9932854217
 Zn         5.9089148038        5.9948333672        5.9948380913
 Zn        16.7376686888       16.7933187573        5.9805900250
 Zn         5.9381015296       16.8077800915       16.8077817506
 Zn        16.7376705789        5.9806112192       16.7933152081
  N         3.7373862666        5.9884130914       16.8048889998
  N        14.5471343804        5.9836802864        5.9833962979
  N        18.9372573884       16.7942826104       16.7942756408
  N         8.1083273330       16.7993818152        5.9911367667
  N        18.9171939058        5.9789106513        5.9788749365
  N         8.1083393145        5.9912302180       16.7994704475
  N         3.7373827393       16.8049180076        5.9883847660
  N        14.5645588540       16.7948845782       16.7948764350
  N        16.7278546085        3.7933821398        5.9808170335
  N        16.7472194275       14.6113715496       16.7934966634
  N        16.7493270507       18.9826981645       16.7944493258
  N        16.7319515520        8.1640988331        5.9810367013
  N         5.9255601423       18.9929926344        5.9907801850
  N         5.9261082420        8.1713167863       16.8018402800
  N         5.9250257786        3.8029268301       16.8047037050
  N         5.9222285296       14.6203239314        5.9898175493
  N         5.9250344823       16.8046936631        3.8029263240
  N         5.9222016636        5.9898449379       14.6203149516
  N        16.7493177530       16.7944410743       18.9826846221
  N        16.7321818419        5.9813031120        8.1640738866
  N         5.9256014047        5.9908269813       18.9929943256
  N         5.9260875290       16.8018290162        8.1713087478
  N        16.7277344517        5.9809552931        3.7933605729
  N        16.7472129800       16.7935132647       14.6113557769
  N         5.9149911802        3.8034519547        5.9908162321
  N         5.9331255229       14.6192081772       16.8015647674
  N        16.7386862760       18.9829413750        5.9784136539
  N        16.7394368395        8.1635391472       16.7953009109
  N         5.9354529822       18.9923664239       16.8028916635
  N         5.9131290112        8.1729764877        5.9927985362
  N        16.7393162678        3.7932764623       16.7929640871
  N        16.7399418608       14.6116074539        5.9819138420
  N         3.7476968951       16.8053964408       16.8054022995
  N        14.5561254989       16.7935234027        5.9811218078
  N        18.9272102630       16.7957501728        5.9802440619
  N         8.1161827862       16.7998325507       16.7998402098
  N        18.9272097958        5.9803576204       16.7956713562
  N         8.0988778817        5.9941503988        5.9939573591
  N         3.7270105862        5.9904503411        5.9904540461
  N        14.5561429847        5.9813350315       16.7937214554
  N        16.7386187723        5.9785034200       18.9829141924
  N        16.7393555838       16.7953603291        8.1635312537
  N        16.7392228312       16.7928702148        3.7932472192
  N        16.7402995412        5.9822743743       14.6116018559
  N         5.9150375776        5.9908763021        3.8034454204
  N         5.9331285736       16.8015551972       14.6192058732
  N         5.9354513668       16.8028882848       18.9923595904
  N         5.9130858829        5.9928578937        8.1729730987
  C        11.3383584748       15.7386800790       15.7386778847
  H        11.3371685208       14.9630821608       14.9630753472
  C        11.3197686792        4.9304994156        4.9305684362
  H        11.3159602907        4.1549459663        4.1550275947
  C         0.5154024174       15.7384318218        4.9297426762
  H         0.5188625979       14.9623424959        4.1547314878
  C         0.5153949800        4.9297460754       15.7384394245
  H         0.5188591027        4.1547345764       14.9623500044
  C        11.3329812483        7.0428735394       15.7357119295
  H        11.3339252211        7.8180436354       14.9597043659
  C        11.3316279618       17.8544623411        4.9272766804
  H        11.3308187819       18.6304692282        4.1521829734
  C         0.5023263829        7.0470552839        4.9304384730
  H         0.5028538035        7.8233193405        4.1556030807
  C         0.5223737907       17.8554698394       15.7390530711
  H         0.5225406439       18.6308772878       14.9633645448
  C        11.3329666434       15.7357360921        7.0428920435
  H        11.3339215714       14.9597386600        7.8180705204
  C        11.3316534322        4.9272629461       17.8544351125
  H        11.3308335133        4.1521598824       18.6304338857
  C         0.5223776307       15.7390530435       17.8554654863
  H         0.5225392198       14.9633629287       18.6308714054
  C         0.5023223408        4.9304476649        7.0470399257
  H         0.5028354143        4.1556105215        7.8233023324
  C        11.3268480536        7.0475985118        7.0476659922
  H        11.3304122006        7.8231733635        7.8232504664
  C        11.3417312715       17.8556491446       17.8556568976
  H        11.3429506900       18.6311790754       18.6311901165
  C         0.5094532246        7.0459550930       17.8553499113
  H         0.5066613276        7.8218917305       18.6305074051
  C         0.5094595098       17.8553318035        7.0459619093
  H         0.5066518488       18.6304799888        7.8219063227
  C        15.6852389619       11.3885010956       15.7353078137
  H        14.9095889949       11.3892590727       14.9597560709
  C        15.6707612613        0.5667739189        4.9248470787
  H        14.8940228519        0.5654191844        4.1504870126
  C         4.8568461540       11.3974278440        4.9345847631
  H         4.0822195805       11.3982198051        4.1581745928
  C         4.8753023450        0.5761066266       15.7426755150
  H         4.0998084140        0.5746684349       14.9670358893
  C        15.6774685024       11.3890546474        7.0399440255
  H        14.9020734524       11.3899651411        7.8157498247
  C        15.6818889262        0.5666250712       17.8474987480
  H        14.9059019844        0.5653312561       18.6226286628
  C         4.8703746814       11.3961703903       17.8594442541
  H         4.0959080671       11.3971391454       18.6360299318
  C         4.8634133878        0.5762679295        7.0499768469
  H         4.0881021224        0.5745212206        7.8257414098
  C         6.9848295706       11.3937122894       15.7395681596
  H         7.7592691834       11.3926087026       14.9627756187
  C         6.9805643532        0.5799199061        4.9341008359
  H         7.7563232510        0.5818785268        4.1587591417
  C        17.7936889542       11.3866640815        4.9216614823
  H        18.5686257865       11.3854992341        4.1455084453
  C        17.7980805977        0.5695368871       15.7308123812
  H        18.5728170209        0.5711766887       14.9544621170
  C         6.9721535786       11.3952817286        7.0539475724
  H         7.7466510923       11.3940640676        7.8306300143
  C         6.9915309993        0.5790338727       17.8592762522
  H         7.7674213522        0.5805288554       18.6344332737
  C        17.8026794780       11.3864616360       17.8520988612
  H        18.5785616378       11.3855774141       18.6272871140
  C        17.7886011081        0.5696847296        7.0400616537
  H        18.5642250683        0.5715181351        7.8155629967
  C        15.6852501209       15.7352965218       11.3884962759
  H        14.9096051028       14.9597423825       11.3892550721
  C        15.6707971087        4.9248216639        0.5667467093
  H        14.8940686146        4.1504492140        0.5653991189
  C         4.8753006461       15.7426739421        0.5761054519
  H         4.0998041211       14.9670348137        0.5746644917
  C         4.8568530866        4.9345855427       11.3974207842
  H         4.0822276729        4.1581758470       11.3982129746
  C         6.9848314914       15.7395707896       11.3937092249
  H         7.7592735328       14.9627792677       11.3926046390
  C         6.9805553974        4.9340990983        0.5799227412
  H         7.7563104188        4.1587560033        0.5818787489
  C        17.7980936178       15.7308235550        0.5695181938
  H        18.5728334527       14.9544801662        0.5711649067
  C        17.7936199386        4.9216138484       11.3866551877
  H        18.5685451667        4.1454439644       11.3854787879
  C        15.6774048481        7.0398888679       11.3890461995
  H        14.9019923495        7.8156824360       11.3899587838
  C        15.6818956666       17.8475137737        0.5666001025
  H        14.9059148395       18.6226462882        0.5653146023
  C         4.8633973138        7.0499711275        0.5762681629
  H         4.0880797573        7.8257277028        0.5745166421
  C         4.8703752909       17.8594426490       11.3961565259
  H         4.0959078623       18.6360285421       11.3971347219
  C         6.9721651300        7.0539410501       11.3952681690
  H         7.7466662400        7.8306185247       11.3940585514
  C         6.9915328079       17.8592748064        0.5790370028
  H         7.7674245351       18.6344328871        0.5805265971
  C        17.7886296880        7.0400515389        0.5696633039
  H        18.5642579888        7.8155513892        0.5715048581
  C        17.8026858721       17.8520892723       11.3864539548
  H        18.5785685545       18.6272741770       11.3855590635
 Kr         5.1741367424       10.4834767402       10.4834781800
