     409
 i =     150, E =    -5183.6450873459
  N         2.6717013773        5.2210893052       16.0287658228
  C         1.3711595586        5.4893421915       16.2970171427
  N        13.4716039391        5.2134204279        5.2134211574
  C        12.1710498041        5.4816701328        5.4816715669
  N        19.3717808951       17.5548911476       16.0169165861
  C        20.6727304904       17.2866523566       16.2833077736
  N         8.5565903312       17.5625646221        5.2169141024
  C         9.8575251167       17.2943147879        5.4833162392
  N        19.3564391491        5.2092451476        6.7472204525
  C        20.6573881666        5.4756366632        6.4789816580
  N         8.5565890715        5.2169143885       17.5625639480
  C         9.8575235584        5.4833171960       17.2943156253
  N         2.6738840079       17.5667407625        6.7590654457
  C         1.3725843409       17.3003355450        6.4926598448
  N        13.4891256035       17.5590667646       17.5590666113
  C        12.1878130861       17.2926645642       17.2926638261
  N        15.6430184637        3.0390142472        5.2118794116
  C        15.9096137040        1.7379043804        5.4790182802
  N        15.6583554850       13.8465925926       16.0195452909
  C        15.9249527911       12.5454686582       16.2866865978
  N        15.6636289673       19.7303377155       17.5575236264
  C        15.9316765709       21.0310972028       17.2900182189
  N        15.6482840061        8.9228115750        6.7498579577
  C        15.9163468934       10.2235558786        6.4823378820
  N         6.3851741042       19.7369176915        5.2184555424
  C         6.1189722688       21.0380572312        5.4859603095
  N         6.3851767472        8.9293888824       16.0261284199
  C         6.1189598920       10.2305135160       16.2936472308
  N         6.3820880764        3.0455906753       17.5641077078
  C         6.1136467145        1.7448606479       17.2969689736
  N         6.3820944637       13.8531731135        6.7564369271
  C         6.1136496900       12.5524292862        6.4892959461
  N         4.8430230961       16.0272219451        3.0466832820
  C         5.1096184168       16.2943623154        1.7455730683
  N         4.8430213103        5.2195474454       13.8542640528
  C         5.1096150160        5.4866842912       12.5531399996
  N        17.2005099116       16.0184595258       19.7292436305
  C        16.9343089044       16.2859621188       21.0303835471
  N        17.1851683285        5.2107878312        8.9217219970
  C        16.9189562802        5.4783017553       10.2228472220
  N         4.8482907469        6.7575226368       19.7380102935
  C         5.1163398799        6.4900165220       21.0387696486
  N         4.8482916531       17.5651982919        8.9304835871
  C         5.1163501245       17.2976815143       10.2312284377
  N        17.1820844151        6.7487622743        3.0379235339
  C        16.9136442494        6.4816235069        1.7371918605
  N        17.1974259457       17.5564339982       13.8454966621
  C        16.9289872413       17.2892978186       12.5447517137
  N         4.8364444040        3.0466864668        6.7575257766
  C         5.1026593513        1.7455768582        6.4900086147
  N         4.8517856055       13.8542608455       17.5651965148
  C         5.1179980084       12.5531377368       17.2976813808
  N        17.1939295945       19.7292455716        6.7487572144
  C        16.9273504970       21.0303849817        6.4816327360
  N        17.1939283350        8.9217205063       17.5564316713
  C        16.9273382321       10.2228446413       17.2892980515
  N         4.8548709857       19.7380064537       16.0272211232
  C         5.1232979975       21.0387664640       16.2943454361
  N         4.8395301787        8.9304834568        5.2195504290
  C         5.1079672442       10.2312285870        5.4866861866
  N        17.1886613322        3.0379230876       16.0184635059
  C        16.9206011939        1.7371914217       16.2859800565
  N        17.1886629263       13.8455016712        5.2107865418
  C        16.9206050991       12.5447566541        5.4783025531
  N         2.6804632211       16.0287644782       17.5667371444
  C         1.3795430722       16.2970157190       17.3003331928
  N        13.4803696543       16.0210919990        6.7513974519
  C        12.1794367233       16.2893444002        6.4849908977
  N        19.3630173965       16.0169195221        5.2092445760
  C        20.6643462654       16.2833105662        5.4756347868
  N         8.5631638637       16.0245849552       16.0245846807
  C         9.8644783731       16.2909902367       16.2909903829
  N        19.3652002515        6.7472157486       17.5548900407
  C        20.6657696750        6.4789781600       17.2866543004
  N         8.5500069603        6.7548935512        6.7548933300
  C         9.8505613260        6.4866406871        6.4866415570
  N         2.6651241657        6.7590672522        5.2210937286
  C         1.3642035518        6.4926621115        5.4893445073
  N        13.4803692490        6.7513971947       16.0210923347
  C        12.1794353675        6.4849912040       16.2893445508
  N        15.6548669940        5.2118781336       19.7303379466
  C        15.9232939322        5.4790013839       21.0310972244
  N        15.6548641385       16.0195495047        8.9228084948
  C        15.9233054098       16.2866877204       10.2235525290
  N        15.6517836329       17.5575264071        3.0390113143
  C        15.9179978004       17.2900100851        1.7379020147
  N        15.6517792544        6.7498561164       13.8465956607
  C        15.9179938346        6.4823361517       12.5454720978
  N         6.3733263038        5.2184589399        3.0455963117
  C         6.1052645842        5.4859768081        1.7448654499
  N         6.3886720768       16.0261275478       13.8531728958
  C         6.1206083039       16.2936468408       12.5524283406
  N         6.3939330521       17.5641022715       19.7369147205
  C         6.1273541486       17.2969774492       21.0380541743
  N         6.3785967700        6.7564343548        8.9293895901
  C         6.1120015930        6.4892956077       10.2305137176
  N        19.3652021760       17.5548908669        6.7472153639
  C        20.6657712745       17.2866537726        6.4789780498
  N         8.5653524123       17.5625604224       17.5625591281
  C         9.8659065861       17.2943131578       17.2943113900
  N         2.6651234241        5.2210927479        6.7590680134
  C         1.3642033660        5.4893438712        6.4926633749
  N        13.4803651758        5.2134201417       17.5590680975
  C        12.1794322345        5.4816685374       17.2926668293
  N         2.6804632393       17.5667381477       16.0287640090
  C         1.3795432210       17.3003336725       16.2970149727
  N        13.4803667582       17.5590681056        5.2134201099
  C        12.1794336210       17.2926665920        5.4816686776
  N        19.3630155686        5.2092451467       16.0169205877
  C        20.6643442305        5.4756352867       16.2833106533
  N         8.5478256524        5.2169173488        5.2169175813
  C         9.8491394433        5.4833188510        5.4833191896
  N         6.3939329793       19.7369160848       17.5641020503
  C         6.1273533212       21.0380551197       17.2969774644
  N         6.3785963682        8.9293897098        6.7564355742
  C         6.1120018054       10.2305136274        6.4892961765
  N         6.3733266368        3.0455956854        5.2184605451
  C         6.1052648653        1.7448648067        5.4859782176
  N         6.3886714346       13.8531733604       16.0261264355
  C         6.1206080549       12.5524289638       16.2936468629
  N        15.6517819869        3.0390121628       17.5575259486
  C        15.9179963654        1.7379028640       17.2900105920
  N        15.6517786610       13.8465944802        6.7498557566
  C        15.9179941732       12.5454715429        6.4823359821
  N        15.6548680636       19.7303378496        5.2118771319
  C        15.9232952362       21.0310968898        5.4790007365
  N        15.6548633559        8.9228081908       16.0195497757
  C        15.9233047799       10.2235530720       16.2866875474
  N        17.1939278588        6.7487568808       19.7292450185
  C        16.9273496907        6.4816327305       21.0303846483
  N        17.1939290865       17.5564318443        8.9217199204
  C        16.9273392382       17.2892974901       10.2228441595
  N         4.8364449852        6.7575250075        3.0466871181
  C         5.1026596977        6.4900080527        1.7455770662
  N         4.8517853677       17.5651961574       13.8542601630
  C         5.1179985911       17.2976815762       12.5531370327
  N        17.1886631957       16.0184624681        3.0379218964
  C        16.9206026725       16.2859797921        1.7371904826
  N        17.1886619848        5.2107870833       13.8455028545
  C        16.9206040373        5.4783014614       12.5447578226
  N         4.8548702226       16.0272226999       19.7380063678
  C         5.1232987145       16.2943455510       21.0387659587
  N         4.8395301063        5.2195500113        8.9304837644
  C         5.1079672906        5.4866852037       10.2312287803
  N        17.2005097118       19.7292445573       16.0184585649
  C        16.9343086211       21.0303849017       16.2859622686
  N        17.1851686305        8.9217218063        5.2107881364
  C        16.9189573167       10.2228469157        5.4783031265
  N         4.8430207614        3.0466846031       16.0272240731
  C         5.1096167474        1.7455739887       16.2943627366
  N         4.8430213761       13.8542628962        5.2195466904
  C         5.1096160222       12.5531393136        5.4866845699
  N        17.1820842875        3.0379226826        6.7487632745
  C        16.9136430676        1.7371915969        6.4816251958
  N        17.1974257423       13.8454963996       17.5564336280
  C        16.9289867414       12.5447523124       17.2892973818
  N         4.8482916404       19.7380094104        6.7575226391
  C         5.1163402539       21.0387693322        6.4900165476
  N         4.8482906572        8.9304838836       17.5651973173
  C         5.1163494448       10.2312285706       17.2976815739
  N        19.3564384606        6.7472195832        5.2092455956
  C        20.6573881208        6.4789809023        5.4756375679
  N         8.5565853889        6.7548933578       16.0245866484
  C         9.8575199734        6.4866396325       16.2909924360
  N         2.6738828274        6.7590655465       17.5667405615
  C         1.3725833959        6.4926600668       17.3003358656
  N        13.4737885159        6.7514001510        6.7514003099
  C        12.1724764086        6.4849924800        6.4849935397
  N         2.6717019101       16.0287652268        5.2210886449
  C         1.3711608643       16.2970167711        5.4893422075
  N        13.4869472397       16.0210884383       16.0210880326
  C        12.1863930439       16.2893429322       16.2893414993
  N        19.3717813181       16.0169176632       17.5548907572
  C        20.6727303848       16.2833087439       17.2866520450
  N         8.5565875580       16.0245855397        6.7548934916
  C         9.8575218743       16.2909923239        6.4866397631
  N         6.3820905667       17.5641072068        3.0455902691
  C         6.1136484342       17.2969683827        1.7448599726
  N         6.3820928178        6.7564364367       13.8531746703
  C         6.1136498135        6.4892954246       12.5524300607
  N         6.3851724296        5.2184564722       19.7369170276
  C         6.1189715053        5.4859602972       21.0380566633
  N         6.3851782154       16.0261281682        8.9293891285
  C         6.1189608019       16.2936474724       10.2305132459
  N        15.6636287527       17.5575240197       19.7303382647
  C        15.9316777711       17.2900184453       21.0310972970
  N        15.6482842456        6.7498572139        8.9228109763
  C        15.9163462376        6.4823370792       10.2235559894
  N        15.6430190453        5.2118780228        3.0390151529
  C        15.9096138648        5.4790170449        1.7379051153
  N        15.6583554933       16.0195460304       13.8465917136
  C        15.9249526375       16.2866870888       12.5454679492
 Zn        14.3406194609       14.7030718811       14.7030712949
 Cl        13.1341143377       13.4991317378       13.4991309681
 Zn        14.3252554230        3.8954107818        3.8954117498
 Cl        13.1187764822        2.6914612763        2.6914623536
 Zn         3.5252928979       14.7107216638        3.9030801002
 Cl         2.3187785142       13.5068071742        2.6991301888
 Zn         3.5252917600        3.9030800848       14.7107218513
 Cl         2.3187769805        2.6991302549       13.5068075020
 Zn         7.7010420327        8.0729094435       14.7077842587
 Cl         8.9058386675        9.2768516050       13.5021323346
 Zn         7.7010781993       18.8805653187        3.9001070735
 Cl         8.9058433322       20.0845259622        2.6944522463
 Zn        18.5010200727        8.0652746917        3.8924389476
 Cl        19.7058357766        9.2691850836        2.6867836564
 Zn        18.5163730086       18.8729034267       14.7000639682
 Cl        19.7211820893       20.0768589003       13.4944497090
 Zn         7.7010427604       14.7077839096        8.0729094501
 Cl         8.9058397249       13.5021327522        9.2768514509
 Zn         7.7010766351        3.9001073687       18.8805650239
 Cl         8.9058410411        2.6944528685       20.0845261043
 Zn        18.5163725227       14.7000644605       18.8729021620
 Cl        19.7211814032       13.4944509367       20.0768579621
 Zn        18.5010198420        3.8924387859        8.0652753539
 Cl        19.7058347133        2.6867830673        9.2691858758
 Zn        14.3312034908        8.0682004569        8.0682006285
 Cl        13.1281189591        9.2738525224        9.2738525987
 Zn        14.3464984899       18.8758640589       18.8758638659
 Cl        13.1434511265       20.0815290802       20.0815275773
 Zn         3.5312057610        8.0759047918       18.8835259609
 Cl         2.3281167571        9.2815251501       20.0891962451
 Zn         3.5312066295       18.8835259977        8.0759045685
 Cl         2.3281176928       20.0891968095        9.2815245068
 Zn        14.3359127620       14.7030741055        8.0681999749
 Cl        13.1311172453       13.4991335523        9.2738520110
 Zn        14.3358765484        3.8953976911       18.8758559524
 Cl        13.1311130250        2.6914540735       20.0815267194
 Zn         3.5359139749       14.7107086165       18.8835248020
 Cl         2.3311149098       13.5067999288       20.0891958002
 Zn         3.5205843993        3.9030821081        8.0758969438
 Cl         2.3157795625        2.6991323903        9.2815237340
 Zn         7.6963324120        8.0729092048        8.0729096048
 Cl         8.9028394642        9.2768512947        9.2768512017
 Zn         7.7117203071       18.8805728191       18.8805718538
 Cl         8.9181890103       20.0845278558       20.0845263635
 Zn        18.5116617275        8.0652822442       18.8729029500
 Cl        19.7181812103        9.2691867925       20.0768577989
 Zn        18.5116631849       18.8729028084        8.0652819552
 Cl        19.7181825970       20.0768583782        9.2691861350
 Zn        14.3359116466        8.0682000348       14.7030740110
 Cl        13.1311164661        9.2738525099       13.4991332256
 Zn        14.3358781437       18.8758553654        3.8953974389
 Cl        13.1311152395       20.0815264991        2.6914532122
 Zn         3.5205851396        8.0758963951        3.9030827312
 Cl         2.3157805555        9.2815228870        2.6991322290
 Zn         3.5359143634       18.8835251117       14.7107076742
 Cl         2.3311157652       20.0891965911       13.5067985947
 Zn         7.7057521079       14.7077818289       14.7077813761
 Cl         8.9088385136       13.5021313692       13.5021306899
 Zn         7.6904344999        3.9001206617        3.9001218835
 Cl         8.8934946868        2.6944610321        2.6944617871
 Zn        18.5057301276       14.7000779985        3.8924365923
 Cl        19.7088351179       13.4944588354        2.6867821216
 Zn        18.5057289237        3.8924366792       14.7000788356
 Cl        19.7088332732        2.6867819871       13.4944593850
 Zn         5.6146761471        5.9880239005       16.7956093972
 Zn        16.4299258142       16.7879361922       16.7879358189
 Zn        16.4145852143        5.9803537970        5.9803548672
 Zn         5.6146774466       16.7956092607        5.9880233638
 Zn         5.6070068304        5.9880254564        5.9880261454
 Zn        16.4222559049       16.7879374858        5.9803520632
 Zn         5.6223472421       16.7956073901       16.7956069515
 Zn        16.4222550195        5.9803519732       16.7879382859
  N         3.4125658386        5.9895538312       16.7972283972
  N        14.2124641628        5.9818853313        5.9818857184
  N        18.6320195760       16.7864288340       16.7864286063
  N         7.8168167528       16.7941004021        5.9864284212
  N        18.6166792392        5.9787579603        5.9787594165
  N         7.8168154319        5.9864283099       16.7941012541
  N         3.4125672637       16.7972279550        5.9895526700
  N        14.2278058299       16.7895542383       16.7895528987
  N        16.4130768133        3.7782423687        5.9803200545
  N        16.4284166788       14.5858143344       16.7879900226
  N        16.4315437398       18.9900301948       16.7879926730
  N        16.4162009934        8.1824948195        5.9803234680
  N         5.6162077400       18.9977038352        5.9879897451
  N         5.6162078606        8.1901646966       16.7956640719
  N         5.6130808888        3.7859120624       16.7956657267
  N         5.6130824511       14.5934867996        5.9879911790
  N         5.6130807474       16.7956659609        3.7859113268
  N         5.6130804794        5.9879919513       14.5934876127
  N        16.4315436045       16.7879936553       18.9900299973
  N        16.4162016151        5.9803232848        8.1824953011
  N         5.6162055959        5.9879901545       18.9977042109
  N         5.6162086677       16.7956633023        8.1901642810
  N        16.4130769478        5.9803187837        3.7782433675
  N        16.4284166990       16.7879897077       14.5858141158
  N         5.6054106237        3.7859132897        5.9879935743
  N         5.6207523464       14.5934852264       16.7956619147
  N        16.4238743491       18.9900326719        5.9803160556
  N        16.4238718917        8.1824932411       16.7879917795
  N         5.6238781518       18.9977021133       16.7956616639
  N         5.6085385120        8.1901668957        5.9879927264
  N        16.4207471621        3.7782405888       16.7879968382
  N        16.4207471771       14.5858153449        5.9803228113
  N         3.4202367413       16.7972271182       16.7972261348
  N        14.2201351195       16.7895552163        5.9818832036
  N        18.6243504727       16.7864310940        5.9787554080
  N         7.8244865069       16.7940992029       16.7940984926
  N        18.6243490373        5.9787556388       16.7864311217
  N         7.8091465583        5.9864293359        5.9864313105
  N         3.4048956632        5.9895546526        5.9895559119
  N        14.2201341561        5.9818830978       16.7895568401
  N        16.4238715334        5.9803175140       18.9900331088
  N        16.4238721937       16.7879913283        8.1824930373
  N        16.4207484458       16.7879961126        3.7782400396
  N        16.4207457820        5.9803216960       14.5858164131
  N         5.6054117866        5.9879930943        3.7859138190
  N         5.6207529925       16.7956628360       14.5934848238
  N         5.6238760951       16.7956630032       18.9977013538
  N         5.6085360552        5.9879938327        8.1901670619
  C        11.0246699958       15.7508271553       15.7508264176
  H        11.0235811771       14.9837856409       14.9837849958
  C        11.0093288022        4.9431519622        4.9431528943
  H        11.0082402284        4.1761094264        4.1761103228
  C         0.2094153104       15.7584955964        4.9508204132
  H         0.2082813482       14.9914456734        4.1837698734
  C         0.2094135788        4.9508207623       15.7584957896
  H         0.2082799844        4.1837696553       14.9914460795
  C        11.0184782608        7.0251549114       15.7508291470
  H        11.0184771769        7.7921967629       14.9837872663
  C        11.0184801546       17.8328343716        4.9431491503
  H        11.0184785728       18.5998772425        4.1761062310
  C         0.2032240539        7.0328325130        4.9508229191
  H         0.2031774068        7.7998827197        4.1837714400
  C         0.2185651416       17.8405044677       15.7584923711
  H         0.2185182683       18.6075554053       14.9914421142
  C        11.0184800658       15.7508290416        7.0251545529
  H        11.0184783710       14.9837873848        7.7921959351
  C        11.0184784969        4.9431499247       17.8328345897
  H        11.0184769760        4.1761069496       18.5998770304
  C         0.2185648812       15.7584931235       17.8405034340
  H         0.2185180395       14.9914433619       18.6075544803
  C         0.2032238426        4.9508226201        7.0328331629
  H         0.2031771261        4.1837712127        7.7998828286
  C        11.0122844050        7.0251555611        7.0251558175
  H        11.0133736163        7.7921965056        7.7921970913
  C        11.0276254140       17.8328322596       17.8328314716
  H        11.0287146202       18.5998747989       18.5998734386
  C         0.2123697265        7.0328309546       17.8405044883
  H         0.2134134217        7.7998798556       18.6075559509
  C         0.2123708405       17.8405047857        7.0328305201
  H         0.2134148072       18.6075562007        7.7998794974
  C        15.3844071581       11.3848936329       15.7477306814
  H        14.6168212282       11.3854390541       14.9812338710
  C        15.3690620703        0.5773065466        4.9400569212
  H        14.6014684834        0.5778049655        4.1735506975
  C         4.5690666091       11.3925665118        4.9477250703
  H         3.8014792960       11.3931119042        4.1812268543
  C         4.5690646385        0.5849761736       15.7554000629
  H         3.8014693825        0.5854745093       14.9888942265
  C        15.3782162521       11.3848968765        7.0220590962
  H        14.6117188181       11.3854403075        7.7896436000
  C        15.3782091810        0.5773064662       17.8297390935
  H        14.6117041683        0.5778027932       18.5973338222
  C         4.5782134633       11.3925660101       17.8374074200
  H         3.8117155582       11.3931099053       18.6049945815
  C         4.5628731302        0.5849793654        7.0297377894
  H         3.7963664161        0.5854758840        7.7973318009
  C         6.6587397694       11.3910887502       15.7539239632
  H         7.4252373349       11.3905441244       14.9863382900
  C         6.6434036531        0.5835020284        4.9462500227
  H         7.4099089627        0.5829099605        4.1786545868
  C        17.4587419799       11.3834196823        4.9385755451
  H        18.2252406450       11.3828744531        4.1709876401
  C        17.4587407115        0.5758293343       15.7462507749
  H        18.2252473692        0.5752369226       14.9786557411
  C         6.6525478933       11.3910881686        7.0282522170
  H         7.4201331623       11.3905447495        7.7947497414
  C         6.6525510629        0.5834980272       17.8359326527
  H         7.4201449539        0.5829072015       18.6024389760
  C        17.4678890575       11.3834154253       17.8282589708
  H        18.2354759325       11.3828717989       18.5947576155
  C        17.4525481571        0.5758283821        7.0205889119
  H        18.2201433102        0.5752376675        7.7870952160
  C        15.3844079895       15.7477310553       11.3848924804
  H        14.6168222375       14.9812345959       11.3854384667
  C        15.3690614122        4.9400566341        0.5773070601
  H        14.6014690320        4.1735491859        0.5778059799
  C         4.5690655262       15.7554005685        0.5849756495
  H         3.8014718489       14.9888938170        0.5854744813
  C         4.5690652969        4.9477249883       11.3925669366
  H         3.8014783881        4.1812262478       11.3931123294
  C         6.6587408239       15.7539245256       11.3910881912
  H         7.4252375813       14.9863383380       11.3905437286
  C         6.6434032947        4.9462496431        0.5835023535
  H         7.4099087614        4.1786545205        0.5829102964
  C        17.4587416161       15.7462505922        0.5758283176
  H        18.2252483553       14.9786562009        0.5752361870
  C        17.4587416406        4.9385758035       11.3834200647
  H        18.2252397406        4.1709874155       11.3828751892
  C        15.3782145744        7.0220589627       11.3848967442
  H        14.6117178183        7.7896448442       11.3854403869
  C        15.3782108124       17.8297391403        0.5773061064
  H        14.6117059953       18.5973338811        0.5778032078
  C         4.5628724781        7.0297366767        0.5849797787
  H         3.7963668788        7.7973317820        0.5854773266
  C         4.5782144632       17.8374083219       11.3925653855
  H         3.8117161888       18.6049952086       11.3931089396
  C         6.6525468467        7.0282528653       11.3910884563
  H         7.4201333044        7.7947497220       11.3905450766
  C         6.6525525706       17.8359328046        0.5834974520
  H         7.4201475102       18.6024383448        0.5829068242
  C        17.4525479243        7.0205886772        0.5758282302
  H        18.2201445080        7.7870936475        0.5752383670
  C        17.4678901994       17.8282595806       11.3834143551
  H        18.2354776321       18.5947581829       11.3828711897
 Xe        21.2446765606       10.8002611602       10.8002612084
