     409
 i =     150, E =    -5183.7510044090
  N         3.0324405448        5.2050044864       16.0221832695
  C         1.7143762548        5.4754270014       16.2908186443
  N        13.8492236614        5.2011251205        5.2011397176
  C        12.5315893800        5.4716871171        5.4716845124
  N        19.7181114080       17.5756238898       16.0195469500
  C        21.0359600970       17.3053667614       16.2893251224
  N         8.8957623571       17.5796130474        5.2048247495
  C        10.2136016995       17.3081936379        5.4732015484
  N        19.7113665527        5.2023629089        6.7586612969
  C        21.0292816463        5.4746039601        6.4906989796
  N         8.8957587170        5.2048139978       17.5796034642
  C        10.2135964569        5.4731982606       17.3081902046
  N         3.0309598646       17.5783593004        6.7615553560
  C         1.7133678045       17.3068933887        6.4915269905
  N        13.8556512477       17.5763124729       17.5763076936
  C        12.5379080629       17.3067161041       17.3067104309
  N        16.0026137066        3.0462207778        5.2004969912
  C        16.2728211871        1.7286645634        5.4703488683
  N        16.0089905609       13.8668000202       16.0189806198
  C        16.2794275070       12.5492529266       16.2878087982
  N        16.0087629081       19.7304312772       17.5758414420
  C        16.2779339073       21.0480178838       17.3053617966
  N        16.0040979075        8.9116955435        6.7588727242
  C        16.2756989029       10.2290446774        6.4901099393
  N         6.7422317016       19.7347553971        5.2063021059
  C         6.4726539891       21.0523398567        5.4772260077
  N         6.7440411826        8.9145089078       16.0228509656
  C         6.4748941666       10.2321745203       16.2930761339
  N         6.7434730944        3.0511359408       17.5791020035
  C         6.4764840329        1.7332230362       17.3073618852
  N         6.7428935709       13.8701753558        6.7610712719
  C         6.4734401408       12.5526132714        6.4907625873
  N         5.1890075022       16.0222550621        3.0501818315
  C         5.4611883084       16.2907439852        1.7326297480
  N         5.1876809598        5.2050436724       13.8703740952
  C         5.4576590097        5.4746367254       12.5527668511
  N        17.5631496539       16.0186078895       19.7305553242
  C        17.2929970040       16.2884514082       21.0482324143
  N        17.5576827723        5.2013387318        8.9109247411
  C        17.2905254143        5.4730331442       10.2285860941
  N         5.1872675252        6.7630440531       19.7342001228
  C         5.4572718506        6.4938555445       21.0519065252
  N         5.1882998550       17.5789646534        8.9151723915
  C         5.4590462575       17.3092393234       10.2325448396
  N        17.5563292567        6.7579339088        3.0466506595
  C        17.2875617687        6.4875095896        1.7289336892
  N        17.5639591274       17.5754854562       13.8663937275
  C        17.2947732950       17.3044091624       12.5488887557
  N         5.1842955608        3.0501454521        6.7629839202
  C         5.4555778946        1.7325312769        6.4939745388
  N         5.1903779748       13.8703984671       17.5794446760
  C         5.4599952933       12.5528219237       17.3094795564
  N        17.5580511830       19.7308553324        6.7576499680
  C        17.2884029155       21.0484399783        6.4873672148
  N        17.5602186383        8.9108530194       17.5760930053
  C        17.2929652707       10.2285526345       17.3045672171
  N         5.1918768584       19.7341605912       16.0224296648
  C         5.4627824446       21.0518660116       16.2909551893
  N         5.1861680065        8.9150034243        5.2055115190
  C         5.4569766575       10.2324613263        5.4748890994
  N        17.5607549655        3.0468371620       16.0183677402
  C        17.2918214630        1.7289793883       16.2883645659
  N        17.5610109676       13.8663492340        5.2020579602
  C        17.2921279640       12.5488302904        5.4732382537
  N         3.0350027397       16.0227237252       17.5790059985
  C         1.7172575137       16.2908270529       17.3068915480
  N        13.8522886104       16.0195044202        6.7570867048
  C        12.5346630888       16.2901783201        6.4874187976
  N        19.7151682143       16.0197338639        5.2025384838
  C        21.0328317088       16.2895891149        5.4740793000
  N         8.8982042401       16.0226682376       16.0226760379
  C        10.2161576576       16.2919904479       16.2919869787
  N        19.7137313147        6.7582523381       17.5764470810
  C        21.0318495291        6.4899124399       17.3058997388
  N         8.8939607969        6.7593837093        6.7593741425
  C        10.2113353561        6.4886309448        6.4886160376
  N         3.0288235762        6.7629525456        5.2065951745
  C         1.7109378772        6.4927453627        5.4766529120
  N        13.8522797383        6.7570960391       16.0195197928
  C        12.5346546530        6.4874262788       16.2901893366
  N        16.0046168232        5.1997735696       19.7305366771
  C        16.2738068636        5.4700320111       21.0482001884
  N        16.0061169941       16.0189952694        8.9117462428
  C        16.2778474136       16.2877755534       10.2290952160
  N        16.0063185112       17.5753473221        3.0459265537
  C        16.2766985600       17.3051676980        1.7284884743
  N        16.0066422200        6.7590330704       13.8666379676
  C        16.2771164986        6.4901684196       12.5491254754
  N         6.7381809162        5.2059177507        3.0508656595
  C         6.4706055696        5.4771457729        1.7330380760
  N         6.7454628409       16.0232093185       13.8703209805
  C         6.4756418623       16.2932128400       12.5527045868
  N         6.7475051672       17.5789653616       19.7347366451
  C         6.4784554906       17.3073656710       21.0523367181
  N         6.7420210188        6.7614190220        8.9146817991
  C         6.4729558849        6.4909187942       10.2322474583
  N        19.7137446218       17.5764455942        6.7582605949
  C        21.0318576799       17.3059045970        6.4899050185
  N         8.8997144876       17.5785911550       17.5786016141
  C        10.2171665178       17.3079882526       17.3079874902
  N         3.0288179752        5.2065890456        6.7629565602
  C         1.7109402142        5.4766572797        6.4927417267
  N        13.8523140592        5.2004851195       17.5756670419
  C        12.5346467851        5.4713266279       17.3062286222
  N         3.0349972583       17.5790133319       16.0227141899
  C         1.7172594434       17.3068922299       16.2908270239
  N        13.8523248358       17.5756519825        5.2004750772
  C        12.5346569528       17.3062176753        5.4713188640
  N        19.7151613731        5.2025311016       16.0197352155
  C        21.0328211063        5.4740858583       16.2895831282
  N         8.8920107030        5.2032745630        5.2032700120
  C        10.2102106150        5.4725868783        5.4725761989
  N         6.7474906448       19.7347297260       17.5789656035
  C         6.4784480449       21.0523357734       17.3073665905
  N         6.7420341059        8.9146893676        6.7614156577
  C         6.4729628382       10.2322493833        6.4909124766
  N         6.7381795484        3.0508697234        5.2059120229
  C         6.4706079279        1.7330399506        5.4771387220
  N         6.7454673454       13.8703173174       16.0232147236
  C         6.4756387021       12.5527046295       16.2932174759
  N        16.0063055226        3.0459236415       17.5753461270
  C        16.2767016151        1.7284842401       17.3051826963
  N        16.0066681794       13.8666325510        6.7590556804
  C        16.2770846527       12.5491221098        6.4901306399
  N        16.0046349737       19.7305265145        5.1997741975
  C        16.2738022430       21.0481976664        5.4700394002
  N        16.0060850804        8.9117461611       16.0190140773
  C        16.2778726110       10.2290874677       16.2877524988
  N        17.5580306108        6.7576491819       19.7308542820
  C        17.2884057893        6.4873588734       21.0484429672
  N        17.5602519722       17.5760753102        8.9108634588
  C        17.2929397383       17.3045928170       10.2285599408
  N         5.1843002274        6.7629938410        3.0501447924
  C         5.4555784960        6.4939839536        1.7325298796
  N         5.1903728303       17.5794356360       13.8703986729
  C         5.4599969628       17.3094735406       12.5528231661
  N        17.5607693883       16.0183688713        3.0468373376
  C        17.2918193232       16.2883512189        1.7289788029
  N        17.5609852093        5.2020361544       13.8663547614
  C        17.2921610198        5.4732753618       12.5488377177
  N         5.1918868284       16.0224328675       19.7341626176
  C         5.4627882809       16.2909565467       21.0518700606
  N         5.1861554953        5.2055126908        8.9150022027
  C         5.4569688324        5.4748949281       10.2324574527
  N        17.5631396196       19.7305563586       16.0186010218
  C        17.2930063952       21.0482346186       16.2884622026
  N        17.5577041019        8.9109158589        5.2013584393
  C        17.2904840156       10.2285762905        5.4729923025
  N         5.1890125104        3.0501868255       16.0222575673
  C         5.4611858184        1.7326284659       16.2907408981
  N         5.1876756358       13.8703723934        5.2050416534
  C         5.4576600470       12.5527689032        5.4746366541
  N        17.5563163526        3.0466475660        6.7579367123
  C        17.2875462549        1.7289293836        6.4875215061
  N        17.5639619755       13.8663861568       17.5754977130
  C        17.2948137038       12.5488824845       17.3043765415
  N         5.1872713753       19.7342079076        6.7630557206
  C         5.4572756017       21.0519099511        6.4938579113
  N         5.1882924030        8.9151690842       17.5789558285
  C         5.4590397365       10.2325433018       17.3092359279
  N        19.7113694657        6.7586658169        5.2023553424
  C        21.0292774579        6.4906993955        5.4746013026
  N         8.8960610608        6.7601561695       16.0229660201
  C        10.2137176715        6.4889045519       16.2918587375
  N         3.0309514284        6.7615542376       17.5783576727
  C         1.7133624514        6.4915319588       17.3068794502
  N        13.8501100415        6.7575589284        6.7575713958
  C        12.5323157627        6.4877688633        6.4877637817
  N         3.0324459993       16.0221838272        5.2050069552
  C         1.7143850187       16.2908314239        5.4754223229
  N        13.8544837203       16.0200285910       16.0200207085
  C        12.5370498885       16.2906629151       16.2906546645
  N        19.7181173121       16.0195352634       17.5756293979
  C        21.0359584178       16.2893222415       17.3053657296
  N         8.8960661156       16.0229731353        6.7601674341
  C        10.2137214137       16.2918614154        6.4889080003
  N         6.7434637968       17.5791010951        3.0511417919
  C         6.4764864636       17.3073665885        1.7332214853
  N         6.7429045898        6.7610711967       13.8701691215
  C         6.4734407352        6.4907600503       12.5526135106
  N         6.7422314032        5.2062917239       19.7347544228
  C         6.4726507208        5.4772233408       21.0523365192
  N         6.7440448560       16.0228585272        8.9145082408
  C         6.4748995535       16.2930795408       10.2321749300
  N        16.0087726872       17.5758461646       19.7304310174
  C        16.2779234329       17.3053499170       21.0480208530
  N        16.0040732780        6.7588549252        8.9117052112
  C        16.2757400961        6.4901501726       10.2290487297
  N        16.0026307801        5.2004958481        3.0462309588
  C        16.2728366174        5.4703355156        1.7286665194
  N        16.0089904315       16.0189634202       13.8668005689
  C        16.2793906976       16.2878396812       12.5492603990
 Zn        14.7160745013       14.7257930553       14.7258089193
 Cl        13.4833342203       13.4937946655       13.4937871849
 Zn        14.7120520419        3.9065936547        3.9065805043
 Cl        13.4772318631        2.6754989100        2.6755079972
 Zn         3.8962332762       14.7292757478        3.9101679441
 Cl         2.6639725485       13.4956248758        2.6791496245
 Zn         3.8962397257        3.9101778627       14.7292873030
 Cl         2.6639866968        2.6791622059       13.4956328547
 Zn         8.0360798002        8.0539002140       14.7285292926
 Cl         9.2692906874        9.2855172072       13.4964794938
 Zn         8.0332341602       18.8738130111        3.9115945532
 Cl         9.2675438311       20.1056864862        2.6806467646
 Zn        18.8468241402        8.0510731573        3.9066367867
 Cl        20.0806030371        9.2836945735        2.6757417982
 Zn        18.8562454521       18.8699128000       14.7257669824
 Cl        20.0885206583       20.1008350503       13.4921467299
 Zn         8.0360623409       14.7285280325        8.0538972483
 Cl         9.2692944439       13.4964966794        9.2855102439
 Zn         8.0332604170        3.9115861847       18.8738182042
 Cl         9.2675468073        2.6806212362       20.1057021458
 Zn        18.8562567736       14.7257548316       18.8699302942
 Cl        20.0885405654       13.4921312814       20.1008495384
 Zn        18.8468077780        3.9066490496        8.0510573994
 Cl        20.0805823335        2.6757615269        9.2836778003
 Zn        14.7124907670        8.0519067196        8.0519022370
 Cl        13.4796522485        9.2839599712        9.2839667812
 Zn        14.7173713266       18.8704217548       18.8704279420
 Cl        13.4837451737       20.1020098399       20.1020004643
 Zn         3.8948597837        8.0549086256       18.8720100802
 Cl         2.6632218638        9.2895659660       20.1027350704
 Zn         3.8948615120       18.8720107733        8.0549135363
 Cl         2.6632363510       20.1027449375        9.2895727226
 Zn        14.7141977860       14.7257420727        8.0519821747
 Cl        13.4812514492       13.4938148809        9.2839720686
 Zn        14.7145409973        3.9053893951       18.8693877402
 Cl        13.4801989779        2.6736190336       20.1001650500
 Zn         3.8980418939       14.7296016996       18.8731665977
 Cl         2.6663235033       13.4964781364       20.1051691997
 Zn         3.8932978887        3.9118610659        8.0551955831
 Cl         2.6610680417        2.6820150493        9.2902674418
 Zn         8.0351301812        8.0537761604        8.0537788508
 Cl         9.2689545204        9.2853303117        9.2853206518
 Zn         8.0405554780       18.8727914443       18.8727834106
 Cl         9.2747779447       20.1040104419       20.1040152947
 Zn        18.8491801221        8.0509628218       18.8711801564
 Cl        20.0826662235        9.2833702796       20.1025460866
 Zn        18.8492220094       18.8711835919        8.0509755624
 Cl        20.0826798931       20.1025717801        9.2833965974
 Zn        14.7141861614        8.0519756717       14.7257419814
 Cl        13.4812540509        9.2839888305       13.4938228745
 Zn        14.7145498587       18.8693888385        3.9053930105
 Cl        13.4801984277       20.1001458607        2.6736100789
 Zn         3.8933052497        8.0551903352        3.9118918148
 Cl         2.6610970934        9.2902489418        2.6820198928
 Zn         3.8980368331       18.8731736875       14.7295745023
 Cl         2.6662988694       20.1051813915       13.4964660548
 Zn         8.0378243563       14.7285974176       14.7285975383
 Cl         9.2706194981       13.4965914757       13.4965974986
 Zn         8.0258834269        3.9097916360        3.9097837795
 Cl         9.2600330030        2.6781250469        2.6781210180
 Zn        18.8527040207       14.7257274097        3.9078792013
 Cl        20.0855052715       13.4920338597        2.6774068830
 Zn        18.8527032821        3.9078657521       14.7257251136
 Cl        20.0855155242        2.6773992677       13.4920296726
 Zn         5.9603707140        5.9870849165       16.8048736413
 Zn        16.7820250100       16.7981945277       16.7981484464
 Zn        16.7769343212        5.9798741618        5.9799746583
 Zn         5.9603800832       16.8049009104        5.9870975208
 Zn         5.9580497267        5.9873319075        5.9873117408
 Zn        16.7791705335       16.7978838802        5.9794797658
 Zn         5.9633646956       16.8055175047       16.8055597158
 Zn        16.7791474745        5.9794921805       16.7979330450
  N         3.7779728854        5.9831753197       16.8010595075
  N        14.5958549950        5.9791339495        5.9791524675
  N        18.9715381943       16.7977571415       16.7977577725
  N         8.1493269177       16.8019837589        5.9833043664
  N        18.9649677375        5.9793732483        5.9793784569
  N         8.1493223098        5.9832923111       16.8019703261
  N         3.7779794040       16.8010603072        5.9831861821
  N        14.6013340047       16.7979236267       16.7979163878
  N        16.7792449617        3.7931101520        5.9792149323
  N        16.7860955438       14.6131651553       16.7977844238
  N        16.7862319534       18.9839048974       16.7974880225
  N        16.7798942569        8.1646853475        5.9794892892
  N         5.9644944563       18.9880200949        5.9842057796
  N         5.9656564204        8.1684497654       16.8007736819
  N         5.9647688768        3.7974229179       16.8017238224
  N         5.9650622116       14.6169902773        5.9833428630
  N         5.9647667001       16.8017295676        3.7974233136
  N         5.9650662179        5.9833378364       14.6169879397
  N        16.7862468732       16.7975094006       18.9839023292
  N        16.7798489742        5.9794352339        8.1646982843
  N         5.9644893416        5.9841952751       18.9880148760
  N         5.9656636308       16.8007830236        8.1684517154
  N        16.7792483631        5.9792150011        3.7931192238
  N        16.7861205190       16.7977511823       14.6131687184
  N         5.9602380537        3.7973254481        5.9837929362
  N         5.9679042049       14.6170904924       16.8013592576
  N        16.7815733196       18.9840472352        5.9786080278
  N        16.7820489468        8.1646674993       16.7982441971
  N         5.9689633177       18.9880564472       16.8016437260
  N         5.9634805595        8.1684571961        5.9838485334
  N        16.7832357983        3.7930150150       16.7970204588
  N        16.7834484625       14.6130711587        5.9800528806
  N         3.7813138736       16.8020459297       16.8020452997
  N        14.5985248694       16.7972924712        5.9784943126
  N        18.9679742477       16.7983005173        5.9795458718
  N         8.1523261970       16.8009895139       16.8010051950
  N        18.9679633933        5.9795403666       16.7983106258
  N         8.1464677490        5.9817713165        5.9817667294
  N         3.7750977558        5.9848455737        5.9848454864
  N        14.5985132384        5.9785059473       16.7973116589
  N        16.7815546961        5.9786136120       18.9840526275
  N        16.7820957483       16.7982037773        8.1646740134
  N        16.7832533555       16.7970202670        3.7930165184
  N        16.7834004824        5.9800129761       14.6130788364
  N         5.9602401087        5.9838042220        3.7973228536
  N         5.9679008551       16.8013458391       14.6170937930
  N         5.9689725364       16.8016396002       18.9880619016
  N         5.9634699616        5.9838547661        8.1684529632
  C        11.3759740372       15.7409397967       15.7409313422
  H        11.3750286020       14.9653780071       14.9653717529
  C        11.3704629237        4.9218703703        4.9218644781
  H        11.3699728890        4.1463276483        4.1463285885
  C         0.5541950557       15.7396025388        4.9249516742
  H         0.5552660632       14.9637640654        4.1496847704
  C         0.5541857966        4.9249579881       15.7395929212
  H         0.5552512520        4.1496834364       14.9637619297
  C        11.3741352184        7.0383396685       15.7405005021
  H        11.3741153186        7.8138342593       14.9648721805
  C        11.3741273271       17.8575131138        4.9219230326
  H        11.3742819286       18.6332129300        4.1465285963
  C         0.5501144309        7.0422843392        4.9258519785
  H         0.5502065574        7.8180593907        4.1505334679
  C         0.5565884453       17.8560276368       15.7394536338
  H         0.5566777735       18.6315048046       14.9638274490
  C        11.3741410811       15.7404982192        7.0383368430
  H        11.3741178365       14.9648727387        7.8138337595
  C        11.3741194250        4.9219239323       17.8575177063
  H        11.3742745984        4.1465279815       18.6332158614
  C         0.5565897086       15.7394501207       17.8560251437
  H         0.5566635658       14.9638213440       18.6314999561
  C         0.5501162002        4.9258579715        7.0422830715
  H         0.5502284165        4.1505422714        7.8180601268
  C        11.3722305557        7.0385107137        7.0384970612
  H        11.3729073764        7.8140727407        7.8140619558
  C        11.3781005299       17.8577268595       17.8577244050
  H        11.3791155558       18.6332762180       18.6332783883
  C         0.5520018227        7.0411909246       17.8563127813
  H         0.5510910634        7.8168298323       18.6317615882
  C         0.5520058990       17.8563236367        7.0411846673
  H         0.5510727649       18.6317648931        7.8168310536
  C        15.7287133005       11.3895364249       15.7366110676
  H        14.9532278700       11.3901126911       14.9609642813
  C        15.7233030519        0.5682794887        4.9192289730
  H        14.9480510871        0.5680693646        4.1433666483
  C         4.9069035486       11.3927322173        4.9241507090
  H         4.1312018489       11.3928446763        4.1487247770
  C         4.9123289251        0.5718627348       15.7397134148
  H         4.1370893891        0.5711638961       14.9638334509
  C        15.7265677047       11.3893942885        7.0414538393
  H        14.9512315000       11.3899019053        7.8172526576
  C        15.7271015879        0.5680145931       17.8559693084
  H        14.9516565853        0.5676461135       18.6316449079
  C         4.9091726653       11.3928662519       17.8599980673
  H         4.1336928479       11.3930425436       18.6356283834
  C         4.9066978692        0.5718363615        7.0450740075
  H         4.1317515375        0.5710887750        7.8212305992
  C         7.0257347419       11.3923159013       15.7425769124
  H         7.8011580344       11.3920714457       14.9668512571
  C         7.0220829368        0.5731528715        4.9266965678
  H         7.7973212493        0.5739536238        4.1507827018
  C        17.8415830894       11.3883914728        4.9222409789
  H        18.6160380989       11.3878516078        4.1455625532
  C        17.8422025584        0.5688637625       15.7372847170
  H        18.6166981402        0.5693111688       14.9606528985
  C         7.0238309227       11.3923706930        7.0412909982
  H         7.7993395061       11.3921929495        7.8169251876
  C         7.0281056343        0.5732514915       17.8575303345
  H         7.8033639091        0.5740348876       18.6333971996
  C        17.8443173195       11.3883419762       17.8551413562
  H        18.6190172380       11.3877073913       18.6315714970
  C        17.8376867820        0.5688546062        7.0387589568
  H        18.6119588419        0.5691547489        7.8156287168
  C        15.7286789085       15.7366402863       11.3895408540
  H        14.9532233924       14.9609631822       11.3901372657
  C        15.7233140547        4.9192184752        0.5682842311
  H        14.9480543994        4.1433642862        0.5680487611
  C         4.9123303814       15.7397170651        0.5718636374
  H         4.1370862637       14.9638421528        0.5711721541
  C         4.9069010060        4.9241534500       11.3927305264
  H         4.1312039796        4.1487228348       11.3928372757
  C         7.0257390771       15.7425758806       11.3923148472
  H         7.8011610725       14.9668480172       11.3920624713
  C         7.0220787830        4.9266990759        0.5731526917
  H         7.7973155818        4.1507849523        0.5739595356
  C        17.8421961500       15.7372728320        0.5688613690
  H        18.6167025375       14.9606520267        0.5693050069
  C        17.8416270786        4.9222859522       11.3883985497
  H        18.6160498861        4.1455750550       11.3878550023
  C        15.7266102441        7.0414994937       11.3893961594
  H        14.9512415973        7.8172655763       11.3898828385
  C        15.7270929545       17.8559533732        0.5680202968
  H        14.9516566108       18.6316380073        0.5676665279
  C         4.9066984824        7.0450793359        0.5718323036
  H         4.1317542130        7.8212388796        0.5710915553
  C         4.9091753569       17.8599949701       11.3928680993
  H         4.1336914499       18.6356205104       11.3930407574
  C         7.0238296356        7.0412896089       11.3923687584
  H         7.7993441108        7.8169176332       11.3922116799
  C         7.0281108314       17.8575343812        0.5732529887
  H         7.8033674127       18.6334038757        0.5740177175
  C        17.8376965610        7.0387487404        0.5688549531
  H        18.6119608805        7.8156265788        0.5691540057
  C        17.8442783474       17.8551762125       11.3883504130
  H        18.6190042174       18.6315799121       11.3877127880
 Xe         0.7446399858       10.6861431241       10.6861427708
