     409
 i =     176, E =    -5136.7098527102
  N         2.9397618891        5.1925621612       16.0216127306
  C         1.6225104379        5.4625215292       16.2906893320
  N        13.7515173858        5.1821304228        5.1821457627
  C        12.4342602600        5.4532176148        5.4532248071
  N        19.6323897827       17.5760578537       16.0196480274
  C        20.9496719254       17.3067328936       16.2910000971
  N         8.8041863532       17.5827259404        5.1863659032
  C        10.1215430228       17.3107228486        5.4564669490
  N        19.6197546764        5.1893449467        6.7448148772
  C        20.9368508612        5.4609301175        6.4765186631
  N         8.8041145294        5.1863797835       17.5827019315
  C        10.1214771942        5.4564772562       17.3107092242
  N         2.9386382419       17.5769104247        6.7491954100
  C         1.6216614380       17.3062398117        6.4782889762
  N        13.7739682169       17.5819145676       17.5819408535
  C        12.4561981527       17.3116862109       17.3116995351
  N        15.9124174068        3.0384894706        5.1883772651
  C        16.1843430253        1.7216345010        5.4577714277
  N        15.9344990165       13.8618875059       16.0238967748
  C        16.2017330341       12.5426598200       16.2930329417
  N        15.9298454684       19.7261457222       17.5755343259
  C        16.1967727505       21.0435094501       17.3039648677
  N        15.9173445910        8.8989738170        6.7371462177
  C        16.1876835496       10.2179630867        6.4694759688
  N         6.6436777119       19.7276969786        5.1940146286
  C         6.3715847473       21.0445016232        5.4635725785
  N         6.6424494796        8.9023858456       16.0257201672
  C         6.3761225251       10.2221242439       16.2947642427
  N         6.6450366005        3.0426390123       17.5795966514
  C         6.3766391686        1.7251904295       17.3092407878
  N         6.6368514496       13.8639137558        6.7389450992
  C         6.3672744824       12.5449786980        6.4707302040
  N         5.0889982641       16.0234695664        3.0408190152
  C         5.3610210686       16.2935434069        1.7239242431
  N         5.0817883919        5.1839571003       13.8625044989
  C         5.3515596477        5.4550528979       12.5449665367
  N        17.4826618210       16.0173996122       19.7274915665
  C        17.2109338664       16.2869525124       21.0445076275
  N        17.4740628539        5.1832493345        8.9007195208
  C        17.2041908453        5.4545240367       10.2181274703
  N         5.0878969065        6.7502278832       19.7260846695
  C         5.3561118290        6.4795155201       21.0435704045
  N         5.0858648350       17.5801551096        8.9072975878
  C         5.3595444298       17.3096983318       10.2242996865
  N        17.4698269747        6.7429549496        3.0397306885
  C        17.2007496053        6.4726480240        1.7224792832
  N        17.4879518450       17.5809239442       13.8586441320
  C        17.2163376914       17.3098116544       12.5413455729
  N         5.0810059667        3.0405161754        6.7478313630
  C         5.3526084480        1.7234812450        6.4783963398
  N         5.0940239669       13.8641603715       17.5812738613
  C         5.3635124228       12.5465316131       17.3100431009
  N        17.4750619700       19.7257937781        6.7417930084
  C        17.2034908709       21.0427640929        6.4721860821
  N        17.4819440697        8.9015570042       17.5820287076
  C        17.2132091804       10.2192308539       17.3102344527
  N         5.0974029008       19.7263673570       16.0217292991
  C         5.3651199167       21.0438551658       16.2928265526
  N         5.0783111771        8.9062599809        5.1849251792
  C         5.3500940557       10.2233709050        5.4556621601
  N        17.4747453483        3.0416459309       16.0156567460
  C        17.2066181693        1.7242909475       16.2862892037
  N        17.4805936806       13.8569761549        5.1856808373
  C        17.2075793272       12.5397612870        5.4555481415
  N         2.9475232141       16.0215749396       17.5772202414
  C         1.6301514994       16.2918057698       17.3073659577
  N        13.7634569501       16.0237504071        6.7390581751
  C        12.4441460633       16.2928366692        6.4708267231
  N        19.6260186982       16.0174062634        5.1906634143
  C        20.9428590683       16.2885462188        5.4612218687
  N         8.8137197378       16.0288191684       16.0287969585
  C        10.1327312158       16.2973886726       16.2973796881
  N        19.6243950224        6.7446687164       17.5752075972
  C        20.9417646696        6.4759951465       17.3050693179
  N         8.7936499847        6.7388322676        6.7388201197
  C        10.1126048001        6.4698941171        6.4698879984
  N         2.9334694861        6.7491736493        5.1931354552
  C         1.6164328446        6.4786214722        5.4629295865
  N        13.7634016165        6.7390514014       16.0237750033
  C        12.4440924835        6.4708239912       16.2928488579
  N        15.9187321345        5.1869779473       19.7244629610
  C        16.1873658945        5.4570678550       21.0418620826
  N        15.9286389839       16.0245157354        8.9005330435
  C        16.1986867237       16.2932251717       10.2194904334
  N        15.9194088013       17.5725401164        3.0401599054
  C        16.1916591741       17.3026505929        1.7233283124
  N        15.9244666028        6.7397047025       13.8604188234
  C        16.1911911800        6.4706067117       12.5411343908
  N         6.6360080806        5.1911655179        3.0412554501
  C         6.3677579693        5.4623208415        1.7241585155
  N         6.6517123553       16.0275836333       13.8648910461
  C         6.3804833896       16.2954823425       12.5458828321
  N         6.6533434495       17.5778344576       19.7281924338
  C         6.3807510181       17.3085502354       21.0450967668
  N         6.6332309081        6.7400554716        8.9026846458
  C         6.3657149785        6.4714078431       10.2219819349
  N        19.6244278627       17.5751915425        6.7447001384
  C        20.9417975720       17.3050709348        6.4760038260
  N         8.8162076639       17.5843715544       17.5843501022
  C        10.1337317076       17.3131450044       17.3131360372
  N         2.9334800094        5.1931531702        6.7491475818
  C         1.6164399727        5.4629387218        6.4786096201
  N        13.7608044036        5.1850643673       17.5803451113
  C        12.4434532427        5.4561204730       17.3095969436
  N         2.9475129390       17.5772367960       16.0215521535
  C         1.6301452619       17.3073755580       16.2917935694
  N        13.7608691817       17.5803252135        5.1850714636
  C        12.4435217284       17.3095863824        5.4561238357
  N        19.6259848212        5.1906403739       16.0174210931
  C        20.9428258716        5.4612163099       16.2885431762
  N         8.7952285629        5.1838254088        5.1838117666
  C        10.1126605188        5.4541830022        5.4541765444
  N         6.6533334112       19.7282167697       17.5778085495
  C         6.3807270438       21.0451179167       17.3085288476
  N         6.6332435193        8.9027078902        6.7400370851
  C         6.3657380265       10.2220115337        6.4713896530
  N         6.6360057556        3.0412766365        5.1911254044
  C         6.3677651965        1.7241790586        5.4622807058
  N         6.6517094917       13.8649166127       16.0275531003
  C         6.3804745295       12.5459115850       16.2954548806
  N        15.9193506571        3.0401413270       17.5725543893
  C        16.1916096712        1.7233067537       17.3026678114
  N        15.9245108965       13.8603868102        6.7397205985
  C        16.1912307623       12.5411032199        6.4706226403
  N        15.9187868621       19.7244399783        5.1870080775
  C        16.1874074709       21.0418383095        5.4571062304
  N        15.9286056381        8.9005074026       16.0245562401
  C        16.1986646681       10.2194608105       16.2932646283
  N        17.4750238301        6.7417467934       19.7258108439
  C        17.2034587971        6.4721399433       21.0427828911
  N        17.4819738632       17.5819924785        8.9015982089
  C        17.2132281106       17.3101968090       10.2192644635
  N         5.0810093144        6.7478750971        3.0405014437
  C         5.3526040627        6.4784383191        1.7234681200
  N         5.0940197269       17.5812966396       13.8641255293
  C         5.3635167552       17.3100672481       12.5464981996
  N        17.4747912802       16.0156331511        3.0416595157
  C        17.2066615009       16.2862674747        1.7243057272
  N        17.4805509375        5.1856674371       13.8570132801
  C        17.2075411808        5.4555330826       12.5397949328
  N         5.0974134746       16.0217571041       19.7263516328
  C         5.3651421117       16.2928488979       21.0438402198
  N         5.0783057869        5.1849360155        8.9062223313
  C         5.3500754183        5.4556771453       10.2233360654
  N        17.4826485613       19.7274783668       16.0174253169
  C        17.2109086111       21.0444910968       16.2869743364
  N        17.4740719819        8.9006819954        5.1832569209
  C        17.2042138812       10.2180921954        5.4545354450
  N         5.0889499419        3.0408338836       16.0234487048
  C         5.3609779424        1.7239373889       16.2935227423
  N         5.0818302061       13.8625383249        5.1839445792
  C         5.3515977624       12.5450037295        5.4550397093
  N        17.4698285575        3.0397185996        6.7430049359
  C        17.2007618580        1.7224638974        6.4726959613
  N        17.4879579420       13.8586093544       17.5809540291
  C        17.2163343153       12.5413107216       17.3098447810
  N         5.0879368486       19.7261004003        6.7501984421
  C         5.3561400555       21.0435851814        6.4794786786
  N         5.0858330797        8.9073291832       17.5801311668
  C         5.3595209004       10.2243332447       17.3096765105
  N        19.6197450058        6.7447810426        5.1893647226
  C        20.9368441053        6.4764999669        5.4609429261
  N         8.8014467409        6.7384767033       16.0242967075
  C        10.1206908769        6.4704275272       16.2932451504
  N         2.9386033459        6.7492268863       17.5768786412
  C         1.6216262614        6.4783101327       17.3062146486
  N        13.7545383218        6.7370311599        6.7370413288
  C        12.4354144864        6.4688927867        6.4688977140
  N         2.9397970458       16.0216461534        5.1925325196
  C         1.6225452415       16.2907151366        5.4625002876
  N        13.7746784350       16.0261220524       16.0261495075
  C        12.4558908852       16.2958646452       16.2958786032
  N        19.6324005732       16.0196296600       17.5760706190
  C        20.9496777471       16.2909917959       17.3067391553
  N         8.8014983946       16.0243217242        6.7384634978
  C        10.1207469644       16.2932587080        6.4704177279
  N         6.6450942016       17.5796112276        3.0426166424
  C         6.3766861598       17.3092570744        1.7251697630
  N         6.6367999853        6.7389634411       13.8638829066
  C         6.3672326458        6.4707475252       12.5449479111
  N         6.6436289368        5.1940384177       19.7276725325
  C         6.3715523490        5.4636050145       21.0444812082
  N         6.6424899066       16.0257503034        8.9023612287
  C         6.3761497237       16.2947902586       10.2220968828
  N        15.9298578572       17.5755104328       19.7261695247
  C        16.1967983337       17.3039453649       21.0435314746
  N        15.9173307045        6.7371325819        8.8990027433
  C        16.1876589436        6.4694611269       10.2179923213
  N        15.9124129957        5.1883349079        3.0385118218
  C        16.1843276143        5.4577289588        1.7216573945
  N        15.9344996713       16.0238584015       13.8619219014
  C        16.2017394079       16.2929950439       12.5426905910
 Zn        14.6516797513       14.7392699800       14.7393161941
 Br        13.3348804032       13.4303828391       13.4304103567
 Zn        14.6159318406        3.8936802270        3.8937085055
 Br        13.3080631856        2.5761417458        2.5761764651
 Zn         3.7923435900       14.7272500325        3.8951966748
 Br         2.4753939516       13.4198884925        2.5769113179
 Zn         3.7923101753        3.8952067300       14.7272213689
 Br         2.4753483159        2.5769355602       13.4198577667
 Zn         7.9231602940        8.0201123313       14.7380477768
 Br         9.2333254124        9.3314492039       13.4245476012
 Zn         7.9409387512       18.8752547038        3.8985402869
 Br         9.2497477399       20.1926987435        2.5823209632
 Zn        18.7660909739        8.0381843361        3.8945923319
 Br        20.0811572257        9.3480336406        2.5767814158
 Zn        18.7761092804       18.8725561841       14.7227374344
 Br        20.0943795294       20.1875713959       13.4131046235
 Zn         7.9232272575       14.7380868403        8.0200969051
 Br         9.2333586353       13.4245676687        9.3314460215
 Zn         7.9408832406        3.8985553842       18.8752404084
 Br         9.2496858077        2.5823327288       20.1926860637
 Zn        18.7761236572       14.7227162770       18.8725673250
 Br        20.0943887879       13.4130771148       20.1875816976
 Zn        18.7660919199        3.8945899317        8.0382453547
 Br        20.0811624735        2.5767745414        9.3480822429
 Zn        14.6313646558        8.0191587030        8.0191700063
 Br        13.3243581682        9.3331704943        9.3331701356
 Zn        14.6399326464       18.8733616529       18.8733851940
 Br        13.3261989152       20.1880519284       20.1880878880
 Zn         3.7932441695        8.0471669711       18.8715084001
 Br         2.4767538939        9.3568231222       20.1875373706
 Zn         3.7932716730       18.8715288105        8.0471348023
 Br         2.4767948284       20.1875704549        9.3567910388
 Zn        14.6438608862       14.7395028672        8.0223806348
 Br        13.3290936492       13.4351970584        9.3385360412
 Zn        14.6226122741        3.8943289679       18.8703423366
 Br        13.3141618006        2.5743092676       20.1843686986
 Zn         3.8010670849       14.7258058532       18.8721954325
 Br         2.4855537545       13.4156118780       20.1888759991
 Zn         3.7875666778        3.8963673295        8.0446074905
 Br         2.4702249859        2.5801801759        9.3537489825
 Zn         7.9157529609        8.0219562585        8.0219402923
 Br         9.2307903645        9.3324667193        9.3324629853
 Zn         7.9485204765       18.8746573830       18.8746343462
 Br         9.2586229727       20.1909084462       20.1908758886
 Zn        18.7701278619        8.0367179816       18.8741096399
 Br        20.0876029281        9.3459495806       20.1901618245
 Zn        18.7701491704       18.8740840800        8.0367808499
 Br        20.0876421685       20.1901285770        9.3459993816
 Zn        14.6438192391        8.0223659668       14.7395514220
 Br        13.3290748620        9.3385293055       13.4352273572
 Zn        14.6226861846       18.8703301933        3.8943447574
 Br        13.3142314942       20.1843523044        2.5743243470
 Zn         3.7875644195        8.0446479094        3.8963633965
 Br         2.4702257058        9.3537866540        2.5801703271
 Zn         3.8010537676       18.8722063071       14.7257792691
 Br         2.4855516962       20.1888906961       13.4155773794
 Zn         7.9395525992       14.7440131965       14.7439760850
 Br         9.2472405779       13.4309387966       13.4309198079
 Zn         7.9303488206        3.8953111867        3.8952882874
 Br         9.2397043942        2.5785115805        2.5784842958
 Zn        18.7709834016       14.7209189721        3.8966464242
 Br        20.0868607981       13.4102073521        2.5804884038
 Zn        18.7709493376        3.8966307861       14.7209387831
 Br        20.0868190623        2.5804594652       13.4102342588
 Zn         5.8627743273        5.9646112110       16.8025668334
 Zn        16.7108761774       16.7976564857       16.7977066853
 Zn        16.6919880135        5.9607834756        5.9608077635
 Zn         5.8628494856       16.8026104063        5.9645866697
 Zn         5.8541404959        5.9636964239        5.9636699714
 Zn        16.7024198569       16.7960194548        5.9620669330
 Zn         5.8815962669       16.8019466708       16.8018992379
 Zn        16.7023668627        5.9620411503       16.7960710132
  N         3.6856299407        5.9710236969       16.7996456078
  N        14.5000802383        5.9589492734        5.9589655659
  N        18.8861463371       16.7972123843       16.7972351157
  N         8.0559070665       16.8040761180        5.9621464026
  N        18.8729641947        5.9660979205        5.9661293390
  N         8.0558460893        5.9621573014       16.8040507738
  N         3.6856683332       16.7996841728        5.9709914123
  N        14.5209296100       16.8040551421       16.8040890262
  N        16.6904526292        3.7855151706        5.9659311668
  N        16.7121258416       14.6071233855       16.8027125434
  N        16.7074779897       18.9799671120       16.7970599805
  N        16.6956045759        8.1529566222        5.9592888638
  N         5.8667582963       18.9804203048        5.9723929815
  N         5.8623176606        8.1580294409       16.8031492367
  N         5.8660305512        3.7881194235       16.8015881505
  N         5.8594718263       14.6101980194        5.9608642812
  N         5.8660874017       16.8016057302        3.7881025705
  N         5.8594161273        5.9608745371       14.6101639774
  N        16.7074845879       16.7970316349       18.9799887062
  N        16.6955989784        5.9592801447        8.1529882593
  N         5.8667081914        5.9724136563       18.9804012160
  N         5.8623644365       16.8031737158        8.1579998485
  N        16.6904554816        5.9658846610        3.7855346693
  N        16.7121206947       16.8026797897       14.6071573261
  N         5.8575364994        3.7873903757        5.9690129162
  N         5.8735675771       14.6113240646       16.8051649017
  N        16.6977677082       18.9783139963        5.9643377615
  N        16.7048562276        8.1542596836       16.8039868169
  N         5.8766879533       18.9807155430       16.7992202315
  N         5.8547090064        8.1574614218        5.9620012083
  N        16.6961605136        3.7872020454       16.7938037988
  N        16.7040071688       14.6055456047        5.9626579291
  N         3.6945481735       16.7992584469       16.7992358527
  N        14.5090587160       16.8022957107        5.9614318881
  N        18.8787892834       16.7960427211        5.9671401868
  N         8.0682717146       16.8070014432       16.8069725613
  N        18.8787552422        5.9671045817       16.7960701386
  N         8.0474476888        5.9611084920        5.9610917608
  N         3.6797675293        5.9712175501        5.9711953467
  N        14.5089983656        5.9614140316       16.8023321497
  N        16.6977144865        5.9643005977       18.9783377605
  N        16.7048855304       16.8039405660        8.1542902115
  N        16.6962201647       16.7937806433        3.7872210785
  N        16.7039671558        5.9626382028       14.6055785442
  N         5.8575472533        5.9690510638        3.7873727463
  N         5.8735646462       16.8051911935       14.6112923314
  N         5.8766902639       16.7992488388       18.9806950064
  N         5.8547039097        5.9620125876        8.1574301158
  C        11.2936435193       15.7472351681       15.7472371928
  H        11.2925450390       14.9717446400       14.9717470023
  C        11.2730566357        4.9041196613        4.9041200940
  H        11.2724124297        4.1286146622        4.1286154903
  C         0.4634722447       15.7394822076        4.9118909669
  H         0.4647882739       14.9641364156        4.1361841230
  C         0.4634387514        4.9119007027       15.7394652661
  H         0.4647557909        4.1361953555       14.9641184639
  C        11.2822200337        7.0192987242       15.7428968339
  H        11.2820073639        7.7938418861       14.9664920449
  C        11.2826964165       17.8602532373        4.9074527126
  H        11.2829646155       18.6364788909        4.1326483859
  C         0.4565916652        7.0276880125        4.9118502760
  H         0.4565288102        7.8027749759        4.1358738459
  C         0.4699653879       17.8571896829       15.7417897907
  H         0.4699858006       18.6329539428       14.9665155992
  C        11.2822662684       15.7428971033        7.0192951062
  H        11.2820402210       14.9664914737        7.7938387392
  C        11.2826214883        4.9074557286       17.8602520126
  H        11.2828772360        4.1326509956       18.6364778415
  C         0.4699800470       15.7417922286       17.8571876934
  H         0.4700148452       14.9665186596       18.6329519028
  C         0.4566103601        4.9118495053        7.0276917163
  H         0.4565673290        4.1358739458        7.8027790018
  C        11.2744715195        7.0189723552        7.0189708032
  H        11.2751454585        7.7944743028        7.7944723331
  C        11.2955904758       17.8618118003       17.8618134498
  H        11.2965282089       18.6373151414       18.6373167719
  C         0.4609204402        7.0269288989       17.8559522254
  H         0.4595324647        7.8018616301       18.6320669094
  C         0.4609559858       17.8559660976        7.0269209276
  H         0.4595704669       18.6320808482        7.8018536926
  C        15.6514317002       11.3817058276       15.7430554561
  H        14.8765939854       11.3827060270       14.9669350625
  C        15.6357065548        0.5611132249        4.9074739051
  H        14.8603000049        0.5602559353        4.1318324330
  C         4.8012985512       11.3844451844        4.9057956821
  H         4.0258146178       11.3846750062        4.1302662505
  C         4.8129022353        0.5631160313       15.7433910744
  H         4.0371161770        0.5618771900       14.9681290303
  C        15.6395328497       11.3801347230        7.0191719939
  H        14.8636537043       11.3808470797        7.7942689716
  C        15.6446944813        0.5625117669       17.8539102605
  H        14.8700806139        0.5610918510       18.6303406787
  C         4.8116576990       11.3862467399       17.8587601464
  H         4.0354892489       11.3875917576       18.6336353584
  C         4.8043436703        0.5629380318        7.0289992775
  H         4.0286331597        0.5620797028        7.8043459465
  C         6.9282319076       11.3831468603       15.7464293519
  H         7.7044483567       11.3818340152       14.9717175072
  C         6.9193515944        0.5648752142        4.9125018260
  H         7.6941477957        0.5658952075        4.1362522919
  C        17.7556415224       11.3784638636        4.9057525323
  H        18.5314369148       11.3777906700        4.1305213138
  C        17.7583400047        0.5651820880       15.7360900379
  H        18.5335284082        0.5664591877       14.9602269486
  C         6.9160151327       11.3833200927        7.0206403576
  H         7.6915358664       11.3831362534        7.7961121752
  C         6.9284282659        0.5659236438       17.8590889231
  H         7.7036216488        0.5671345049       18.6349363435
  C        17.7638522131       11.3796637593       17.8599098004
  H        18.5388756918       11.3788189425       18.6359169035
  C        17.7526258286        0.5630646114        7.0220640328
  H        18.5288568247        0.5638721939        7.7968907371
  C        15.6514474846       15.7430161211       11.3817343952
  H        14.8766109261       14.9668940996       11.3827291800
  C        15.6356748342        4.9074361100        0.5611389870
  H        14.8602647135        4.1317987290        0.5602909766
  C         4.8129346840       15.7434138483        0.5631036467
  H         4.0371470793       14.9681537271        0.5618729462
  C         4.8012701302        4.9058087663       11.3844065284
  H         4.0257861580        4.1302791338       11.3846287237
  C         6.9282517418       15.7464576065       11.3831248554
  H         7.7044703601       14.9717475288       11.3818192312
  C         6.9193309179        4.9125376672        0.5648486884
  H         7.6941249581        4.1362859767        0.5658626610
  C        17.7583736742       15.7360665627        0.5651914792
  H        18.5335604319       14.9602012608        0.5664623634
  C        17.7556106129        4.9057386777       11.3785028070
  H        18.5314053365        4.1305067790       11.3778325695
  C        15.6394995773        7.0191551198       11.3801632898
  H        14.8636199695        7.7942511015       11.3808704998
  C        15.6447342421       17.8538943918        0.5625361698
  H        14.8701222417       18.6303265253        0.5611253591
  C         4.8043300926        7.0290410319        0.5629256513
  H         4.0286224156        7.8043901692        0.5620753641
  C         4.8116703422       17.8587819059       11.3862105318
  H         4.0355015447       18.6336568233       11.3875478700
  C         6.9159807902        7.0206610547       11.3832960534
  H         7.6914997553        7.7961341601       11.3831194316
  C         6.9284660765       17.8591056763        0.5658964711
  H         7.7036619972       18.6349511582        0.5671012385
  C        17.7526075487        7.0220148775        0.5630753040
  H        18.5288419636        7.7968385761        0.5638768014
  C        17.7638623894       17.8598748979       11.3797028874
  H        18.5388855207       18.6358821942       11.3788605967
 Kr        11.2835514264       11.3811856120       11.3811926986
