 DBCSR| CPU Multiplication driver                                           XSMM (U)
 DBCSR| Multrec recursion limit                                              512 (U)
 DBCSR| Multiplication stack size                                           1000 (D)
 DBCSR| Maximum elements for images                                    UNLIMITED (U)
 DBCSR| Multiplicative factor virtual images                                   1 (U)
 DBCSR| Use multiplication densification                                       T (D)
 DBCSR| Multiplication size stacks                                             3 (U)
 DBCSR| Use memory pool for CPU allocation                                     F (U)
 DBCSR| Number of 3D layers                                               SINGLE (U)
 DBCSR| Use MPI memory allocation                                              F (U)
 DBCSR| Use RMA algorithm                                                      F (U)
 DBCSR| Use Communication thread                                               T (U)
 DBCSR| Communication thread load                                             87 (D)
 DBCSR| MPI: My process id                                                     0
 DBCSR| MPI: Number of processes                                             144
 DBCSR| OMP: Current number of threads                                         1
 DBCSR| OMP: Max number of threads                                             1
 DBCSR| Split modifier for TAS multiplication algorithm                  1.0E+00 (U)


  **** **** ******  **  PROGRAM STARTED AT               2024-09-13 01:10:00.947
 ***** ** ***  *** **   PROGRAM STARTED ON                              nid05926
 **    ****   ******    PROGRAM STARTED BY                              bsertcan
 ***** **    ** ** **   PROGRAM PROCESS ID                                  7895
  **** **  *******  **  PROGRAM STARTED IN /scratch/snx3000/bsertcan/MFU_sp/br/k
                                           r/rep41

 CP2K| version string:                 CP2K version 2024.2 (Development Version)
 CP2K| source code revision number:                                  git:42d1e6b
 CP2K| cp2kflags: omp libint fftw3 libxc parallel scalapack xsmm                
 CP2K| is freely available from                            https://www.cp2k.org/
 CP2K| Program compiled at                         Tue Sep  3 22:59:39 CEST 2024
 CP2K| Program compiled on                                              daint106
 CP2K| Program compiled for                                                local
 CP2K| Data directory path                             /users/bsertcan/cp2k/data
 CP2K| Input file name                                                 input.inp

 GLOBAL| Force Environment number                                              1
 GLOBAL| Basis set file name                                    BASIS_MOLOPT_UZH
 GLOBAL| Potential file name                                       POTENTIAL_UZH
 GLOBAL| MM Potential file name                                     MM_POTENTIAL
 GLOBAL| Coordinate file name                                         rep_41.xyz
 GLOBAL| Method name                                                        CP2K
 GLOBAL| Project name                                                 Replica_41
 GLOBAL| Run type                                                         ENERGY
 GLOBAL| FFT library                                                       FFTW3
 GLOBAL| Diagonalization library                                       ScaLAPACK
 GLOBAL| DGEMM library                                                      BLAS
 GLOBAL| Orthonormality check for eigenvectors                          DISABLED
 GLOBAL| Matrix multiplication library                                 ScaLAPACK
 GLOBAL| All-to-all communication in single precision                          F
 GLOBAL| FFTs using library dependent lengths                                  F
 GLOBAL| Grid backend                                                       AUTO
 GLOBAL| Global print level                                                  LOW
 GLOBAL| MPI I/O enabled                                                       T
 GLOBAL| Total number of message passing processes                           144
 GLOBAL| Number of threads for this process                                    1
 GLOBAL| This output is from process                                           0
 GLOBAL| Stack size for threads created by OpenMP (OMP_STACKSIZE)             5M
 GLOBAL| CPU model name                Intel(R) Xeon(R) CPU E5-2690 v3 @ 2.60GHz
 GLOBAL| CPUID                                                              1002

 MEMORY| system memory details [Kb]
 MEMORY|                        rank 0           min           max       average
 MEMORY| MemTotal             65740148      65740148      65740148      65740148
 MEMORY| MemFree              60761652      60761652      61042300      60936230
 MEMORY| Buffers                  7176          6620          7176          6876
 MEMORY| Cached                1875292       1757736       1875292       1818182
 MEMORY| Slab                   220564        213508        220564        215998
 MEMORY| SReclaimable            50496         47732         50496         49052
 MEMORY| MemLikelyFree        62694616      62694616      62854736      62810341


 *******************************************************************************
 *******************************************************************************
 **                                                                           **
 **     #####                         ##              ##                      **
 **    ##   ##            ##          ##              ##                      **
 **   ##     ##                       ##            ######                    **
 **   ##     ##  ##   ##  ##   #####  ##  ##   ####   ##    #####    #####    **
 **   ##     ##  ##   ##  ##  ##      ## ##   ##      ##   ##   ##  ##   ##   **
 **   ##  ## ##  ##   ##  ##  ##      ####     ###    ##   ######   ######    **
 **    ##  ###   ##   ##  ##  ##      ## ##      ##   ##   ##       ##        **
 **     #######   #####   ##   #####  ##  ##  ####    ##    #####   ##        **
 **           ##                                                    ##        **
 **                                                                           **
 **                                                ... make the atoms dance   **
 **                                                                           **
 **            Copyright (C) by CP2K developers group (2000-2024)             **
 **                      J. Chem. Phys. 152, 194103 (2020)                    **
 **                                                                           **
 *******************************************************************************


 TOTAL NUMBERS AND MAXIMUM NUMBERS

  Total number of            - Atomic kinds:                                   6
                             - Atoms:                                        409
                             - Shell sets:                                   409
                             - Shells:                                      3617
                             - Primitive Cartesian functions:               2052
                             - Cartesian basis functions:                  13634
                             - Spherical basis functions:                  11621

  Maximum angular momentum of- Orbital basis functions:                        3
                             - Local part of the GTH pseudopotential:          2
                             - Non-local part of the GTH pseudopotential:      4

  AUX_FIT ADMM-Basis: 
  Total number of            - Shell sets:                                  2799
                             - Shells:                                      2799
                             - Primitive Cartesian functions:               3609
                             - Cartesian basis functions:                   7546
                             - Spherical basis functions:                   6985
                               Maximum angular momentum                        3


 SCF PARAMETERS         Density guess:                                   RESTART
                        --------------------------------------------------------
                        max_scf:                                              10
                        max_scf_history:                                       0
                        max_diis:                                              4
                        --------------------------------------------------------
                        eps_scf:                                        1.00E-06
                        eps_scf_history:                                0.00E+00
                        eps_diis:                                       1.00E-01
                        eps_eigval:                                     1.00E-05
                        --------------------------------------------------------
                        level_shift [a.u.]:                             0.000000
                        --------------------------------------------------------
                        Outer loop SCF in use 
                        No variables optimised in outer loop
                        eps_scf                                         1.00E-06
                        max_scf                                               10
                        No outer loop optimization
                        step_size                                       5.00E-01

  HFX_INFO| Replica ID:                                                        1
  HFX_INFO| FRACTION:                                               0.2500000000
  HFX_INFO| Interaction Potential:                                     TRUNCATED
  HFX_INFO| Cutoff Radius [angstrom]:                               6.0000000000
  HFX_INFO| EPS_SCHWARZ:                                                 1.0E-08
  HFX_INFO| EPS_SCHWARZ_FORCES                                           1.0E-06
  HFX_INFO| EPS_STORAGE_SCALING:                                         1.0E+00
  HFX_INFO| NBINS:                                                            64
  HFX_INFO| BLOCK_SIZE:                                                        5
  HFX_INFO| NUMBER_OF_SHELLS:                                               AUTO
  HFX_INFO| Number of periodic shells considered:                             -1
  HFX_INFO| Number of periodic cells considered:                              27


 Number of electrons:                                                       2056
 Number of occupied orbitals:                                               1028
 Number of molecular orbitals:                                              1028

 Number of orbital functions:                                              11621
 Number of independent orbital functions:                                  11621

 Extrapolation method: initial_guess

 *** WARNING in qs_initial_guess.F:306 :: User requested to restart the   ***
 *** wavefunction from the file named: Replica_41-RESTART.wfn. This file  ***
 *** does not exist. Please check the existence of the file or change     ***
 *** properly the value of the keyword WFN_RESTART_FILE_NAME. Calculation ***
 *** continues using ATOMIC GUESS.                                        ***



 SCF WAVEFUNCTION OPTIMIZATION

  ----------------------------------- OT ---------------------------------------
  Minimizer      : DIIS                : direct inversion
                                         in the iterative subspace
                                         using   7 DIIS vectors
                                         safer DIIS on
  Preconditioner : FULL_SINGLE_INVERSE : inversion of 
                                         H + eS - 2*(Sc)(c^T*H*c+const)(Sc)^T
  Precond_solver : DEFAULT
  stepsize       :    0.08000000                  energy_gap     :    0.08000000
  eps_taylor     :   0.10000E-15                  max_taylor     :             4
  ----------------------------------- OT ---------------------------------------

  Step     Update method      Time    Convergence         Total energy    Change
  ------------------------------------------------------------------------------

  HFX_MEM_INFO| Est. max. program size before HFX [MiB]:                     452

 *** WARNING in hfx_energy_potential.F:587 :: The Kohn Sham matrix is not ***
 *** 100% occupied. This may result in incorrect Hartree-Fock results.    ***
 *** Setting MIN_PAIR_LIST_RADIUS to -1 in the QS section ensures a fully ***
 *** occupied KS matrix. For more information see FAQ:                    ***
 *** https://www.cp2k.org/faq:hfx_eps_warning                             ***

  HFX_MEM_INFO| Number of cart. primitive ERI's calculated:         606308257524
  HFX_MEM_INFO| Number of sph. ERI's calculated:                    321503577657
  HFX_MEM_INFO| Number of sph. ERI's stored in-core:                314431966958
  HFX_MEM_INFO| Number of sph. ERI's stored on disk:                           0
  HFX_MEM_INFO| Number of sph. ERI's calculated on the fly:                    0
  HFX_MEM_INFO| Total memory consumption ERI's RAM [MiB]:                 277548
  HFX_MEM_INFO| Whereof max-vals [MiB]:                                     4902
  HFX_MEM_INFO| Total compression factor ERI's RAM:                         8.64
  HFX_MEM_INFO| Total memory consumption ERI's disk [MiB]:                     0
  HFX_MEM_INFO| Total compression factor ERI's disk:                        0.00
  HFX_MEM_INFO| Size of density/Fock matrix [MiB]:                           152
  HFX_MEM_INFO| Size of buffers [MiB]:                                        79
  HFX_MEM_INFO| Number of periodic image cells considered:                    27
  HFX_MEM_INFO| Est. max. program size after HFX  [MiB]:                    2623

     1 OT DIIS     0.80E-01  233.3     0.01146134     -4960.9200117821 -4.96E+03
     2 OT DIIS     0.80E-01   36.7     0.00703104     -5038.8406392958 -7.79E+01
     3 OT DIIS     0.80E-01   36.8     0.00635905     -5077.4487652453 -3.86E+01
     4 OT DIIS     0.80E-01   36.6     0.00609413     -5100.6101417998 -2.32E+01
     5 OT DIIS     0.80E-01   36.6     0.00349007     -5137.9694924972 -3.74E+01
     6 OT DIIS     0.80E-01   36.7     0.00266964     -5150.6229011058 -1.27E+01
     7 OT DIIS     0.80E-01   36.6     0.00204144     -5159.5374575051 -8.91E+00
     8 OT DIIS     0.80E-01   36.7     0.00135554     -5167.0972049165 -7.56E+00
     9 OT DIIS     0.80E-01   36.6     0.00118475     -5169.4320663883 -2.33E+00
    10 OT DIIS     0.80E-01   36.7     0.00082317     -5172.5813082407 -3.15E+00

  Leaving inner SCF loop after reaching    10 steps.


  Electronic density on regular grids:      -2055.9999999828        0.0000000172
  Core density on regular grids:             2055.9999998398       -0.0000001602
  Total charge density on r-space grids:       -0.0000001430
  Total charge density g-space grids:          -0.0000001430

  Overlap energy of the core charge distribution:               0.00004748345918
  Self energy of the core charge distribution:              -9698.45125378793819
  Core Hamiltonian energy:                                   2877.78798689165978
  Hartree energy:                                            2710.87495049003564
  Exchange-correlation energy:                               -835.26850759814647
  Hartree-Fock Exchange energy:                              -226.64581514618197
  Dispersion energy:                                           -0.87871657361787

  Total energy:                                             -5172.58130824072941

  outer SCF iter =    1 RMS gradient =   0.82E-03 energy =      -5172.5813082407

  ----------------------------------- OT ---------------------------------------
  Minimizer      : DIIS                : direct inversion
                                         in the iterative subspace
                                         using   7 DIIS vectors
                                         safer DIIS on
  Preconditioner : FULL_SINGLE_INVERSE : inversion of 
                                         H + eS - 2*(Sc)(c^T*H*c+const)(Sc)^T
  Precond_solver : DEFAULT
  stepsize       :    0.08000000                  energy_gap     :    0.08000000
  eps_taylor     :   0.10000E-15                  max_taylor     :             4
  ----------------------------------- OT ---------------------------------------

  Step     Update method      Time    Convergence         Total energy    Change
  ------------------------------------------------------------------------------
     1 OT DIIS     0.80E-01   76.4     0.00132191     -5173.7915148659 -1.21E+00
     2 OT DIIS     0.80E-01   36.9     0.00113535     -5175.3292380706 -1.54E+00
     3 OT DIIS     0.80E-01   36.6     0.00075431     -5177.3539757403 -2.02E+00
     4 OT DIIS     0.80E-01   36.8     0.00060640     -5177.9077203851 -5.54E-01
     5 OT DIIS     0.80E-01   36.6     0.00039860     -5178.1839346500 -2.76E-01
     6 OT DIIS     0.80E-01   36.5     0.00026251     -5178.3127183966 -1.29E-01
     7 OT DIIS     0.80E-01   36.5     0.00015445     -5178.3394648255 -2.67E-02
     8 OT DIIS     0.80E-01   36.6     0.00015872     -5178.3503538946 -1.09E-02
     9 OT DIIS     0.80E-01   36.7     0.00008083     -5178.3703602933 -2.00E-02
    10 OT DIIS     0.80E-01   37.0     0.00005185     -5178.3752431927 -4.88E-03

  Leaving inner SCF loop after reaching    10 steps.


  Electronic density on regular grids:      -2055.9999999828        0.0000000172
  Core density on regular grids:             2055.9999998398       -0.0000001602
  Total charge density on r-space grids:       -0.0000001430
  Total charge density g-space grids:          -0.0000001430

  Overlap energy of the core charge distribution:               0.00004748345918
  Self energy of the core charge distribution:              -9698.45125378793819
  Core Hamiltonian energy:                                   2873.74091338340259
  Hartree energy:                                            2711.02000219964793
  Exchange-correlation energy:                               -835.55769157841337
  Hartree-Fock Exchange energy:                              -228.24854431920500
  Dispersion energy:                                           -0.87871657361787

  Total energy:                                             -5178.37524319266413

  outer SCF iter =    2 RMS gradient =   0.52E-04 energy =      -5178.3752431927

  ----------------------------------- OT ---------------------------------------
  Minimizer      : DIIS                : direct inversion
                                         in the iterative subspace
                                         using   7 DIIS vectors
                                         safer DIIS on
  Preconditioner : FULL_SINGLE_INVERSE : inversion of 
                                         H + eS - 2*(Sc)(c^T*H*c+const)(Sc)^T
  Precond_solver : DEFAULT
  stepsize       :    0.08000000                  energy_gap     :    0.08000000
  eps_taylor     :   0.10000E-15                  max_taylor     :             4
  ----------------------------------- OT ---------------------------------------

  Step     Update method      Time    Convergence         Total energy    Change
  ------------------------------------------------------------------------------
     1 OT DIIS     0.80E-01   76.4     0.00004924     -5178.3786425287 -3.40E-03
     2 OT DIIS     0.80E-01   36.7     0.00003555     -5178.3805366336 -1.89E-03
     3 OT DIIS     0.80E-01   36.5     0.00002419     -5178.3818807410 -1.34E-03
     4 OT DIIS     0.80E-01   36.5     0.00000611     -5178.3827839462 -9.03E-04
     5 OT DIIS     0.80E-01   36.4     0.00000375     -5178.3828211027 -3.72E-05
     6 OT DIIS     0.80E-01   36.6     0.00000169     -5178.3828411957 -2.01E-05
     7 OT DIIS     0.80E-01   36.6     0.00000082     -5178.3828446474 -3.45E-06

  *** SCF run converged in     7 steps ***


  Electronic density on regular grids:      -2055.9999999836        0.0000000164
  Core density on regular grids:             2055.9999998398       -0.0000001602
  Total charge density on r-space grids:       -0.0000001438
  Total charge density g-space grids:          -0.0000001438

  Overlap energy of the core charge distribution:               0.00004748345918
  Self energy of the core charge distribution:              -9698.45125378793819
  Core Hamiltonian energy:                                   2873.72045614352101
  Hartree energy:                                            2711.03184925373080
  Exchange-correlation energy:                               -835.55474111234321
  Hartree-Fock Exchange energy:                              -228.25048605425422
  Dispersion energy:                                           -0.87871657361787

  Total energy:                                             -5178.38284464744083

  outer SCF iter =    3 RMS gradient =   0.82E-06 energy =      -5178.3828446474
  outer SCF loop converged in   3 iterations or   27 steps


 ENERGY| Total FORCE_EVAL ( QS ) energy [a.u.]:            -5178.382844647440834

 -------------------------------------------------------------------------------
 -                                                                             -
 -                                DBCSR STATISTICS                             -
 -                                                                             -
 -------------------------------------------------------------------------------
 COUNTER                                    TOTAL       BLAS       SMM       ACC
 flops    14 x     4 x     4               129024       0.0%    100.0%      0.0%     
 flops     4 x     4 x   976               187392       0.0%    100.0%      0.0%     
 flops    41 x     4 x     4               314880       0.0%    100.0%      0.0%     
 flops     4 x     4 x   974               374016       0.0%    100.0%      0.0%     
 flops     4 x     4 x   962               461760       0.0%    100.0%      0.0%     
 flops    29 x     4 x     4              1787328       0.0%    100.0%      0.0%     
 flops    14 x    32 x     4             16515072       0.0%    100.0%      0.0%     
 flops    14 x     4 x    32             16515072       0.0%    100.0%      0.0%     
 flops    32 x     4 x   976             23986176       0.0%    100.0%      0.0%     
 flops     4 x    32 x   976             23986176       0.0%    100.0%      0.0%     
 flops    41 x    32 x     4             40304640       0.0%    100.0%      0.0%     
 flops    41 x     4 x    32             40304640       0.0%    100.0%      0.0%     
 flops    32 x     4 x   974             47874048       0.0%    100.0%      0.0%     
 flops     4 x    32 x   974             47874048       0.0%    100.0%      0.0%     
 flops    32 x     4 x   962             59105280       0.0%    100.0%      0.0%     
 flops     4 x    32 x   962             59105280       0.0%    100.0%      0.0%     
 flops     6 x     6 x    68             61072704       0.0%    100.0%      0.0%     
 flops    31 x     6 x    68             98350848       0.0%    100.0%      0.0%     
 flops    14 x     4 x    14            102359040       0.0%    100.0%      0.0%     
 flops    68 x    68 x    68            129545984       0.0%    100.0%      0.0%     
 flops     6 x     6 x    64            172440576       0.0%    100.0%      0.0%     
 flops    29 x    32 x     4            228777984       0.0%    100.0%      0.0%     
 flops    29 x     4 x    32            228777984       0.0%    100.0%      0.0%     
 flops    31 x     6 x    64            277696512       0.0%    100.0%      0.0%     
 flops    41 x    14 x    68            359718912       0.0%    100.0%      0.0%     
 flops    64 x    68 x    68            365776896       0.0%    100.0%      0.0%     
 flops    68 x    64 x    68            365776896       0.0%    100.0%      0.0%     
 flops    68 x    68 x    64            365776896       0.0%    100.0%      0.0%     
 flops    14 x    14 x    68            470211840       0.0%    100.0%      0.0%     
 flops    41 x     4 x    14            479625216       0.0%    100.0%      0.0%     
 flops    14 x     4 x    41            479625216       0.0%    100.0%      0.0%     
 flops     6 x    31 x    68            688455936       0.0%    100.0%      0.0%     
 flops     6 x     6 x    96            689762304       0.0%    100.0%      0.0%     
 flops     6 x    17 x    68            846843984       0.0%    100.0%      0.0%     
 flops    41 x    14 x    64           1015676928       0.0%    100.0%      0.0%     
 flops    17 x     6 x    68           1016886960       0.0%    100.0%      0.0%     
 flops    64 x    64 x    68           1032781824       0.0%    100.0%      0.0%     
 flops    64 x    68 x    64           1032781824       0.0%    100.0%      0.0%     
 flops    68 x    64 x    64           1032781824       0.0%    100.0%      0.0%     
 flops    31 x     6 x    96           1110786048       0.0%    100.0%      0.0%     
 flops   963 x    68 x    68           1148851296       0.0%    100.0%      0.0%     
 flops    14 x    14 x    64           1327656960       0.0%    100.0%      0.0%     
 flops    41 x     4 x    41           1455826688       0.0%    100.0%      0.0%     
 flops    68 x    68 x    96           1463107584       0.0%    100.0%      0.0%     
 flops    68 x    96 x    68           1463107584       0.0%    100.0%      0.0%     
 flops    96 x    68 x    68           1463107584       0.0%    100.0%      0.0%     
 flops    14 x     4 x    29           1590883392       0.0%    100.0%      0.0%     
 flops    29 x     4 x    14           1590883392       0.0%    100.0%      0.0%     
 flops    68 x    68 x   976           1895470080       0.0%    100.0%      0.0%     
 flops     6 x    31 x    64           1943875584       0.0%    100.0%      0.0%     
 flops   976 x    68 x    68           2328720384       0.0%    100.0%      0.0%     
 flops    31 x    31 x    68           2385463392       0.0%    100.0%      0.0%     
 flops     6 x    17 x    64           2391088896       0.0%    100.0%      0.0%     
 flops    17 x     6 x    64           2871210240       0.0%    100.0%      0.0%     
 flops    64 x    64 x    64           2916089856       0.0%    100.0%      0.0%     
 flops   963 x    64 x    68           3243815424       0.0%    100.0%      0.0%     
 flops   963 x    68 x    64           3243815424       0.0%    100.0%      0.0%     
 flops    14 x    41 x    68           3447306240       0.0%    100.0%      0.0%     
 flops    68 x    68 x   974           3783171840       0.0%    100.0%      0.0%     
 flops    41 x    14 x    96           4062707712       0.0%    100.0%      0.0%     
 flops    64 x    68 x    96           4131127296       0.0%    100.0%      0.0%     
 flops    64 x    96 x    68           4131127296       0.0%    100.0%      0.0%     
 flops    68 x    64 x    96           4131127296       0.0%    100.0%      0.0%     
 flops    68 x    96 x    64           4131127296       0.0%    100.0%      0.0%     
 flops    96 x    64 x    68           4131127296       0.0%    100.0%      0.0%     
 flops    96 x    68 x    64           4131127296       0.0%    100.0%      0.0%     
 flops    14 x    32 x    32           4359979008       0.0%    100.0%      0.0%     
 flops   974 x    68 x    68           4647896832       0.0%    100.0%      0.0%     
 flops    68 x    68 x   962           4670702400       0.0%    100.0%      0.0%     
 flops    14 x    14 x    96           5310627840       0.0%    100.0%      0.0%     
 flops    64 x    68 x   976           5351915520       0.0%    100.0%      0.0%     
 flops    68 x    64 x   976           5351915520       0.0%    100.0%      0.0%     
 flops   962 x    68 x    68           5738291520       0.0%    100.0%      0.0%     
 flops    41 x    41 x    68           5785813728       0.0%    100.0%      0.0%     
 flops    14 x    29 x    68           5861288832       0.0%    100.0%      0.0%     
 flops    32 x    32 x   976           6332350464       0.0%    100.0%      0.0%     
 flops   976 x    64 x    68           6575210496       0.0%    100.0%      0.0%     
 flops   976 x    68 x    64           6575210496       0.0%    100.0%      0.0%     
 flops    17 x    31 x    68           6674311656       0.0%    100.0%      0.0%     
 flops    31 x    31 x    64           6735426048       0.0%    100.0%      0.0%     
 flops   963 x    68 x   976           7669486080       0.0%    100.0%      0.0%     
 flops    41 x     4 x    29           7735919360       0.0%    100.0%      0.0%     
 flops    29 x     4 x    41           7735919360       0.0%    100.0%      0.0%     
 flops     6 x    31 x    96           7775502336       0.0%    100.0%      0.0%     
 flops    29 x    14 x    68           7827199296       0.0%    100.0%      0.0%     
 flops    31 x    17 x    68           8841672936       0.0%    100.0%      0.0%     
 flops   963 x    64 x    64           9159008256       0.0%    100.0%      0.0%     
 flops     6 x    17 x    96           9564355584       0.0%    100.0%      0.0%     
 flops    14 x    41 x    64           9733570560       0.0%    100.0%      0.0%     
 flops    41 x    32 x    32          10640424960       0.0%    100.0%      0.0%     
 flops    64 x    68 x   974          10681896960       0.0%    100.0%      0.0%     
 flops    68 x    64 x   974          10681896960       0.0%    100.0%      0.0%     
 flops    17 x     6 x    96          11484840960       0.0%    100.0%      0.0%     
 flops    64 x    64 x    96          11664359424       0.0%    100.0%      0.0%     
 flops    64 x    96 x    64          11664359424       0.0%    100.0%      0.0%     
 flops    96 x    64 x    64          11664359424       0.0%    100.0%      0.0%     
 flops    32 x    32 x   974          12638748672       0.0%    100.0%      0.0%     
 flops   963 x    68 x    96          12975261696       0.0%    100.0%      0.0%     
 flops   963 x    96 x    68          12975261696       0.0%    100.0%      0.0%     
 flops   974 x    64 x    68          13123473408       0.0%    100.0%      0.0%     
 flops   974 x    68 x    64          13123473408       0.0%    100.0%      0.0%     
 flops    64 x    68 x   962          13187865600       0.0%    100.0%      0.0%     
 flops    68 x    64 x   962          13187865600       0.0%    100.0%      0.0%     
 flops    64 x    64 x   976          15111290880       0.0%    100.0%      0.0%     
 flops   963 x    68 x   974          15307539840       0.0%    100.0%      0.0%     
 flops   976 x    68 x   976          15546040320       0.0%    100.0%      0.0%     
 flops    32 x    32 x   962          15603793920       0.0%    100.0%      0.0%     
 flops    17 x    17 x    68          16156891800       0.0%    100.0%      0.0%     
 flops   962 x    64 x    68          16202234880       0.0%    100.0%      0.0%     
 flops   962 x    68 x    64          16202234880       0.0%    100.0%      0.0%     
 flops    41 x    41 x    64          16336415232       0.0%    100.0%      0.0%     
 flops    96 x    96 x    68          16524509184       0.0%    100.0%      0.0%     
 flops    68 x    96 x    96          16524509184       0.0%    100.0%      0.0%     
 flops    96 x    68 x    96          16524509184       0.0%    100.0%      0.0%     
 flops    14 x    29 x    64          16549521408       0.0%    100.0%      0.0%     
 flops   976 x    64 x    64          18565300224       0.0%    100.0%      0.0%     
 flops    17 x    31 x    64          18845115264       0.0%    100.0%      0.0%     
 flops   963 x    68 x   962          18898682400       0.0%    100.0%      0.0%     
 flops    68 x    96 x   976          21407662080       0.0%    100.0%      0.0%     
 flops    96 x    68 x   976          21407662080       0.0%    100.0%      0.0%     
 flops   963 x    64 x   976          21655019520       0.0%    100.0%      0.0%     
 flops    29 x    14 x    64          22100327424       0.0%    100.0%      0.0%     
 flops    31 x    17 x    64          24964723584       0.0%    100.0%      0.0%     
 flops    29 x    41 x    68          25701880576       0.0%    100.0%      0.0%     
 flops    14 x    32 x    14          26203914240       0.0%    100.0%      0.0%     
 flops   976 x    68 x    96          26300841984       0.0%    100.0%      0.0%     
 flops   976 x    96 x    68          26300841984       0.0%    100.0%      0.0%     
 flops    31 x    31 x    96          26941704192       0.0%    100.0%      0.0%     
 flops    29 x     4 x    29          27632784096       0.0%    100.0%      0.0%     
 flops    64 x    64 x   974          30160650240       0.0%    100.0%      0.0%     
 flops   976 x    68 x   974          31028367360       0.0%    100.0%      0.0%     
 flops   974 x    68 x   976          31028367360       0.0%    100.0%      0.0%     
 flops    41 x    29 x    68          34678393024       0.0%    100.0%      0.0%     
 flops   963 x    64 x    96          36636033024       0.0%    100.0%      0.0%     
 flops   963 x    96 x    64          36636033024       0.0%    100.0%      0.0%     
 flops   974 x    64 x    64          37054513152       0.0%    100.0%      0.0%     
 flops    64 x    64 x   962          37236326400       0.0%    100.0%      0.0%     
 flops   976 x    68 x   962          38307609600       0.0%    100.0%      0.0%     
 flops   962 x    68 x   976          38307609600       0.0%    100.0%      0.0%     
 flops    14 x    41 x    96          38934282240       0.0%    100.0%      0.0%     
 flops    68 x    96 x   974          42727587840       0.0%    100.0%      0.0%     
 flops    96 x    68 x   974          42727587840       0.0%    100.0%      0.0%     
 flops   963 x    64 x   974          43221288960       0.0%    100.0%      0.0%     
 flops   976 x    64 x   976          43894702080       0.0%    100.0%      0.0%     
 flops    17 x    17 x    64          45619459200       0.0%    100.0%      0.0%     
 flops   962 x    64 x    64          45747486720       0.0%    100.0%      0.0%     
 flops    96 x    96 x    64          46657437696       0.0%    100.0%      0.0%     
 flops    64 x    96 x    96          46657437696       0.0%    100.0%      0.0%     
 flops    96 x    64 x    96          46657437696       0.0%    100.0%      0.0%     
 flops   974 x    96 x    68          52493893632       0.0%    100.0%      0.0%     
 flops   974 x    68 x    96          52493893632       0.0%    100.0%      0.0%     
 flops    68 x    96 x   962          52751462400       0.0%    100.0%      0.0%     
 flops    96 x    68 x   962          52751462400       0.0%    100.0%      0.0%     
 flops   963 x    64 x   962          53360985600       0.0%    100.0%      0.0%     
 flops    29 x    32 x    32          60397387776       0.0%    100.0%      0.0%     
 flops    64 x    96 x   976          60445163520       0.0%    100.0%      0.0%     
 flops    96 x    64 x   976          60445163520       0.0%    100.0%      0.0%     
 flops   974 x    68 x   974          61929569280       0.0%    100.0%      0.0%     
 flops   962 x    68 x    96          64808939520       0.0%    100.0%      0.0%     
 flops   962 x    96 x    68          64808939520       0.0%    100.0%      0.0%     
 flops    41 x    41 x    96          65345660928       0.0%    100.0%      0.0%     
 flops    14 x    29 x    96          66198085632       0.0%    100.0%      0.0%     
 flops    29 x    41 x    64          72570015744       0.0%    100.0%      0.0%     
 flops   976 x    64 x    96          74261200896       0.0%    100.0%      0.0%     
 flops   976 x    96 x    64          74261200896       0.0%    100.0%      0.0%     
 flops    17 x    31 x    96          75380461056       0.0%    100.0%      0.0%     
 flops   962 x    68 x   974          76458220800       0.0%    100.0%      0.0%     
 flops   974 x    68 x   962          76458220800       0.0%    100.0%      0.0%     
 flops   963 x    96 x   976          86620078080       0.0%    100.0%      0.0%     
 flops   976 x    64 x   974          87609507840       0.0%    100.0%      0.0%     
 flops   974 x    64 x   976          87609507840       0.0%    100.0%      0.0%     
 flops    29 x    14 x    96          88401309696       0.0%    100.0%      0.0%     
 flops   962 x    68 x   962          94395288000       0.0%    100.0%      0.0%     
 flops    41 x    29 x    64          97915462656       0.0%    100.0%      0.0%     
 flops    31 x    17 x    96          99858894336       0.0%    100.0%      0.0%     
 flops   976 x    64 x   962         108162662400       0.0%    100.0%      0.0%     
 flops   962 x    64 x   976         108162662400       0.0%    100.0%      0.0%     
 flops    29 x    29 x    68         114961948248       0.0%    100.0%      0.0%     
 flops    64 x    96 x   974         120642600960       0.0%    100.0%      0.0%     
 flops    96 x    64 x   974         120642600960       0.0%    100.0%      0.0%     
 flops    41 x    32 x    14         122784055296       0.0%    100.0%      0.0%     
 flops    14 x    32 x    41         122784055296       0.0%    100.0%      0.0%     
 flops   963 x    96 x    96         146544132096       0.0%    100.0%      0.0%     
 flops   974 x    96 x    64         148218052608       0.0%    100.0%      0.0%     
 flops   974 x    64 x    96         148218052608       0.0%    100.0%      0.0%     
 flops    64 x    96 x   962         148945305600       0.0%    100.0%      0.0%     
 flops    96 x    64 x   962         148945305600       0.0%    100.0%      0.0%     
 flops   963 x    96 x   974         172885155840       0.0%    100.0%      0.0%     
 flops   974 x    64 x   974         174859960320       0.0%    100.0%      0.0%     
 flops   976 x    96 x   976         175578808320       0.0%    100.0%      0.0%     
 flops    17 x    17 x    96         182477836800       0.0%    100.0%      0.0%     
 flops   962 x    64 x    96         182989946880       0.0%    100.0%      0.0%     
 flops   962 x    96 x    64         182989946880       0.0%    100.0%      0.0%     
 flops    96 x    96 x    96         186629750784       0.0%    100.0%      0.0%     
 flops   963 x    96 x   962         213443942400       0.0%    100.0%      0.0%     
 flops   962 x    64 x   974         215882035200       0.0%    100.0%      0.0%     
 flops   974 x    64 x   962         215882035200       0.0%    100.0%      0.0%     
 flops    96 x    96 x   976         241780654080       0.0%    100.0%      0.0%     
 flops   962 x    64 x   962         266527872000       0.0%    100.0%      0.0%     
 flops    29 x    41 x    96         290280062976       0.0%    100.0%      0.0%     
 flops   976 x    96 x    96         297044803584       0.0%    100.0%      0.0%     
 flops    29 x    29 x    64         324598442112       0.0%    100.0%      0.0%     
 flops   974 x    96 x   976         350438031360       0.0%    100.0%      0.0%     
 flops   976 x    96 x   974         350438031360       0.0%    100.0%      0.0%     
 flops    41 x    32 x    41         372691632128       0.0%    100.0%      0.0%     
 flops    41 x    29 x    96         391661850624       0.0%    100.0%      0.0%     
 flops    14 x    32 x    29         407266148352       0.0%    100.0%      0.0%     
 flops    29 x    32 x    14         407266148352       0.0%    100.0%      0.0%     
 flops   976 x    96 x   962         432650649600       0.0%    100.0%      0.0%     
 flops   962 x    96 x   976         432650649600       0.0%    100.0%      0.0%     
 flops    96 x    96 x   974         482570403840       0.0%    100.0%      0.0%     
 flops   974 x    96 x    96         592872210432       0.0%    100.0%      0.0%     
 flops    96 x    96 x   962         595781222400       0.0%    100.0%      0.0%     
 flops   974 x    96 x   974         699439841280       0.0%    100.0%      0.0%     
 flops   962 x    96 x    96         731959787520       0.0%    100.0%      0.0%     
 flops   974 x    96 x   962         863528140800       0.0%    100.0%      0.0%     
 flops   962 x    96 x   974         863528140800       0.0%    100.0%      0.0%     
 flops   962 x    96 x   962        1066111488000       0.0%    100.0%      0.0%     
 flops    29 x    29 x    96        1298393768448       0.0%    100.0%      0.0%     
 flops    41 x    32 x    29        1980395356160       0.0%    100.0%      0.0%     
 flops    29 x    32 x    41        1980395356160       0.0%    100.0%      0.0%     
 flops    29 x    32 x    29        7073992728576       0.0%    100.0%      0.0%     
 flops inhomo. stacks                919542991104     100.0%      0.0%      0.0%
 flops total                        30.759444E+12       3.0%     97.0%      0.0%
 flops max/rank                    246.590130E+09       3.0%     97.0%      0.0%
 matmuls inhomo. stacks                     21123     100.0%      0.0%      0.0%
 matmuls total                          266870886       0.0%    100.0%      0.0%
 number of processed stacks               2890701       0.7%     99.3%      0.0%
 average stack size                                     1.1      93.0       0.0
 marketing flops                    45.016114E+12
 -------------------------------------------------------------------------------
 # multiplications                            608
 max memory usage/rank               2.680574E+09
 # max total images/rank                        1
 # max 3D layers                                1
 # MPI messages exchanged                 1926144
 MPI messages size (bytes):
  total size                         1.515289E+12
  min size                           0.000000E+00
  max size                           7.620608E+06
  average size                     786.695500E+03
 MPI breakdown and total messages size (bytes):
             size <=      128               13860                        0
       128 < size <=     8192                   0                        0
      8192 < size <=    32768               54252               1773408384
     32768 < size <=   131072              807840              48825610240
    131072 < size <=  4194304              894960             571327291744
   4194304 < size <= 16777216              155232             893367855600
  16777216 < size                               0                        0
 -------------------------------------------------------------------------------
 -                                                                             -
 -                      DBCSR MESSAGE PASSING PERFORMANCE                      -
 -                                                                             -
 -------------------------------------------------------------------------------
 ROUTINE             CALLS      AVE VOLUME [Bytes]
 MP_Bcast              223                     12.
 MP_Allreduce         3683                     31.
 MP_Alltoall          3959                 316940.
 MP_ISend            29172                 372155.
 MP_IRecv            29172                 369611.
 -------------------------------------------------------------------------------

 -------------------------------------------------------------------------------
 -                                                                             -
 -                                DBM STATISTICS                               -
 -                                                                             -
 -------------------------------------------------------------------------------
    M  x    N  x    K                                          COUNT     PERCENT
 -------------------------------------------------------------------------------

 -------------------------------------------------------------------------------
 -                                                                             -
 -                                GRID STATISTICS                              -
 -                                                                             -
 -------------------------------------------------------------------------------
 LP    KERNEL             BACKEND                              COUNT     PERCENT
 6     collocate ortho    CPU                                7376048      16.20%
 6     integrate ortho    CPU                                7112772      15.62%
 1     collocate ortho    CPU                                5114826      11.23%
 1     integrate ortho    CPU                                5114826      11.23%
 2     collocate ortho    CPU                                4175388       9.17%
 2     integrate ortho    CPU                                4175388       9.17%
 0     collocate ortho    CPU                                2543589       5.59%
 0     integrate ortho    CPU                                2543589       5.59%
 3     collocate ortho    CPU                                1779948       3.91%
 3     integrate ortho    CPU                                1779948       3.91%
 5     collocate ortho    CPU                                1390879       3.06%
 5     integrate ortho    CPU                                1343520       2.95%
 4     collocate ortho    CPU                                 510531       1.12%
 4     integrate ortho    CPU                                 507465       1.11%
 0     collocate general  CPU                                  58896       0.13%
 -------------------------------------------------------------------------------

 MEMORY| Estimated peak process memory [MiB]                                2710

 -------------------------------------------------------------------------------
 -                                                                             -
 -                         MESSAGE PASSING PERFORMANCE                         -
 -                                                                             -
 -------------------------------------------------------------------------------

 ROUTINE             CALLS      AVE VOLUME [Bytes]
 MP_Group                4
 MP_Bcast             3584                4120068.
 MP_Allreduce         8055                   2543.
 MP_Sync               162
 MP_Alltoall          1254                8111587.
 MP_SendRecv         15730                  44208.
 MP_ISendRecv        23452                 264960.
 MP_Wait             33526
 MP_comm_split          20
 MP_ISend             9198                 254509.
 MP_IRecv             9198                 254463.
 -------------------------------------------------------------------------------


 -------------------------------------------------------------------------------
 -                                                                             -
 -                           R E F E R E N C E S                               -
 -                                                                             -
 -------------------------------------------------------------------------------
 
 CP2K version 2024.2 (Development Version), the CP2K developers group (2024).
 CP2K is freely available from https://www.cp2k.org/ .
 
 T. D. Kuehne, M. Iannuzzi, M. Del Ben, V. V. Rybkin, P. Seewald, F. Stein, T. 
 Laino, R. Z. Khaliullin, O. Schuett, F. Schiffmann, D. Golze, J. Wilhelm, S. 
 Chulkov, M. H. Bani-Hashemian, V. Weber, U. Borstnik, M. Taillefumier, A. S. 
 Jakobovits, A. Lazzaro, H. Pabst, T. Mueller, R. Schade, M. Guidon, S. 
 Andermatt, N. Holmberg, G. K. Schenter, A. Hehn, A. Bussy, F. Belleflamme, G. 
 Tabacchi, A. Gloess, M. Lass, I. Bethune, C. J. Mundy, C. Plessl, M. Watkins, 
 J. VandeVondele, M. Krack, J. Hutter.
 J. Chem. Phys. 152, 194103 (2020).
 CP2K: An electronic structure and molecular dynamics software package - 
 Quickstep: Efficient and accurate electronic structure calculations.
 https://doi.org/10.1063/5.0007045

 S. Lehtola, C. Steigemann, M. J. T. Oliveira, M. A. L. Marques.
 SoftwareX 7, 1-5 (2018).
 Recent developments in libxc - A comprehensive library of functionals for 
 density functional theory.
 https://doi.org/10.1016/j.softx.2017.11.002

 L. Goerigk, A. Hansen, C. Bauer, S. Ehrlich, A. Najibi, S. Grimme.
 Phys. Chem. Chem. Phys. 19, 32184-32215 (2017).
 A look at the density functional theory zoo with the advanced GMTKN55 database 
 for general main group thermochemistry, kinetics and noncovalent interactions.
 https://doi.org/10.1039/C7CP04913G

 O. Schuett, P. Messmer, J. Hutter, J. VandeVondele.
 Electronic Structure Calculations on Graphics Processing Units, 173-190 (2016).
 GPU-Accelerated Sparse Matrix-Matrix Multiplication for Linear Scaling Density 
 Functional Theory.
 https://doi.org/10.1002/9781118670712.ch8

 A. Heinecke, G. Henry, M. Hutchinson, H. Pabst.
 Proceedings of Intl. Supercomputing Conference, 981-991 (2016).
 LIBXSMM: Accelerating Small Matrix Multiplications by Runtime Code Generation.
 https://doi.org/10.1109/SC.2016.83

 J. Hutter, M. Iannuzzi, F. Schiffmann, J. VandeVondele.
 WIREs Comput Mol Sci. 4, 15-25 (2014).
 CP2K: atomistic simulations of condensed matter systems.
 https://doi.org/10.1002/wcms.1159

 U. Borstnik, J. VandeVondele, V. Weber, J. Hutter.
 Parallel Comput. 40, 47-58 (2014).
 Sparse matrix multiplication: The distributed block-compressed sparse row 
 library.
 https://doi.org/10.1016/j.parco.2014.03.012

 M. A. L. Marques, M. J. T. Oliveira, T. Burnus.
 Comput. Phys. Commun. 183, 2272-2281 (2012).
 LIBXC: A library of exchange and correlation functionals for density functional 
 theory.
 https://doi.org/10.1016/j.cpc.2012.05.007

 S. Grimme, S. Ehrlich, L. Goerigk.
 J. Comput. Chem. 32, 1456 (2011).
 Effect of the damping function in dispersion corrected density functional 
 theory.
 https://doi.org/10.1002/jcc.21759

 S. Grimme, J. Antony, S. Ehrlich, H. Krieg.
 J. Chem. Phys. 132, 154104 (2010).
 A consistent and accurate ab initio parametrization of density functional 
 dispersion correction (DFT-D) for the 94 elements H-Pu.
 https://doi.org/10.1063/1.3382344

 M. Guidon, J. Hutter, J. VandeVondele.
 J. Chem. Theory Comput. 6, 2348-2364 (2010).
 Auxiliary Density Matrix Methods for Hartree-Fock Exchange Calculations.
 https://doi.org/10.1021/ct1002225

 M. Guidon, J. Hutter, J. VandeVondele.
 J. Chem. Theory Comput. 5, 3010-3021 (2009).
 Robust Periodic Hartree-Fock Exchange for Large-Scale Simulations Using 
 Gaussian Basis Sets.
 https://doi.org/10.1021/ct900494g

 M. Guidon, F. Schiffmann, J. Hutter, J. VandeVondele.
 J. Chem. Phys. 128, 214104 (2008).
 Ab initio molecular dynamics using hybrid density functionals.
 https://doi.org/10.1063/1.2931945

 J. VandeVondele, J. Hutter.
 J. Chem. Phys. 127, 114105 (2007).
 Gaussian basis sets for accurate calculations on molecular systems in gas and 
 condensed phases.
 https://doi.org/10.1063/1.2770708

 J. VandeVondele, M. Krack, F. Mohamed, M. Parrinello, T. Chassaing, J. Hutter.
 Comput. Phys. Commun. 167, 103-128 (2005).
 QUICKSTEP: Fast and accurate density functional calculations using a mixed 
 Gaussian and plane waves approach.
 https://doi.org/10.1016/j.cpc.2004.12.014

 M. Krack.
 Theor. Chem. Acc. 114, 145-152 (2005).
 Pseudopotentials for H to Kr optimized for gradient-corrected 
 exchange-correlation functionals.
 https://doi.org/10.1007/s00214-005-0655-y

 M. Frigo, S. G. Johnson.
 Proc. IEEE 93, 216-231 (2005).
 The design and implementation of FFTW3.
 https://doi.org/10.1109/JPROC.2004.840301

 J. VandeVondele, J. Hutter.
 J. Chem. Phys. 118, 4365-4369 (2003).
 An efficient orbital transformation method for electronic structure 
 calculations.
 https://doi.org/10.1063/1.1543154

 C. Hartwigsen, S. Goedecker, J. Hutter.
 Phys. Rev. B 58, 3641-3662 (1998).
 Relativistic separable dual-space Gaussian pseudopotentials from H to Rn.
 https://doi.org/10.1103/PhysRevB.58.3641

 G. Lippert, J. Hutter, M. Parrinello.
 Mol. Phys. 92, 477-487 (1997).
 A hybrid Gaussian and plane wave density functional scheme.
 https://doi.org/10.1080/002689797170220

 S. Goedecker, M. Teter, J. Hutter.
 Phys. Rev. B 54, 1703-1710 (1996).
 Separable dual-space Gaussian pseudopotentials.
 https://doi.org/10.1103/PhysRevB.54.1703

 J. P. Perdew, K. Burke, M. Ernzerhof.
 Phys. Rev. Lett. 77, 3865-3868 (1996).
 Generalized gradient approximation made simple.
 https://doi.org/10.1103/PhysRevLett.77.3865


 -------------------------------------------------------------------------------
 -                                                                             -
 -                                T I M I N G                                  -
 -                                                                             -
 -------------------------------------------------------------------------------
 SUBROUTINE                       CALLS  ASD         SELF TIME        TOTAL TIME
                                MAXIMUM       AVERAGE  MAXIMUM  AVERAGE  MAXIMUM
 CP2K                                 1  1.0    0.074    0.098 1195.659 1195.665
 qs_energies                          1  2.0    0.008    0.012 1193.791 1193.796
 scf_env_do_scf                       1  3.0    0.000    0.000 1192.258 1192.263
 qs_ks_update_qs_env                 30  5.0    0.000    0.000 1156.361 1156.369
 rebuild_ks_matrix                   27  6.0    0.000    0.000 1156.290 1156.296
 qs_ks_build_kohn_sham_matrix        27  7.0    0.004    0.005 1156.290 1156.296
 hfx_ks_matrix                       27  8.0    0.002    0.002 1069.153 1069.168
 integrate_four_center               27  9.0    1.345    1.855 1069.070 1069.077
 integrate_four_center_main          27 10.0    0.031    0.034  996.940 1028.828
 integrate_four_center_bin         1728 11.0  996.909 1028.798  996.909 1028.798
 scf_env_do_scf_inner_loop           27  4.0    0.001    0.007  882.787  883.044
 init_scf_loop                        3  4.0    0.000    0.000  309.341  309.353
 mp_sync                            162 11.0   38.806   65.223   38.806   65.223
 parallel_gemm_fm                   113 10.2    0.000    0.000   29.905   30.170
 parallel_gemm_fm_gemm              113 11.2    0.000    0.000   29.904   30.170
 cp_fm_gemm                         113 12.2   29.904   30.170   29.904   30.170
 admm_mo_merge_ks_matrix             27  8.0    0.000    0.000   28.286   28.306
 merge_ks_matrix_none                27  9.0    0.001    0.002   28.286   28.306
 qs_vxc_create                       54  8.0    0.001    0.001   27.281   27.281
 xc_vxc_pw_create                    54  9.0    0.136    0.169   27.280   27.280
 fft_wrap_pw1pw2                    897 10.8    0.019    0.027   23.720   24.949
 fft_wrap_pw1pw2_300                570 12.1    0.788    0.833   22.671   23.914
 -------------------------------------------------------------------------------

 The number of warnings for this run is : 2
 
 -------------------------------------------------------------------------------
  **** **** ******  **  PROGRAM ENDED AT                 2024-09-13 01:29:57.145
 ***** ** ***  *** **   PROGRAM RAN ON                                  nid05926
 **    ****   ******    PROGRAM RAN BY                                  bsertcan
 ***** **    ** ** **   PROGRAM PROCESS ID                                  7895
  **** **  *******  **  PROGRAM STOPPED IN /scratch/snx3000/bsertcan/MFU_sp/br/k
                                           r/rep41
