     409
 i =       22, E =     -5183.7593303334
  N         3.0791089516        5.2307920632       16.0539232070
  C         1.7616561446        5.5094547597       16.3149732802
  N        13.8979149943        5.2338715979        5.2324882549
  C        12.5802474061        5.5029284394        5.5033644158
  N        19.7618050456       17.6053312957       16.0506203682
  C        21.0793815663       17.3323704901       16.3177306868
  N         8.9413735676       17.6067374553        5.2293337994
  C        10.2591289641       17.3345536882        5.4968623811
  N        19.7612570038        5.2304762195        6.7865927888
  C        21.0788425688        5.4984038938        6.5145663636
  N         8.9430767414        5.2286714766       17.6066843789
  C        10.2607560496        5.4960650518       17.3342924957
  N         3.0770589676       17.6078291911        6.7890452354
  C         1.7594996519       17.3382446784        6.5185288718
  N        13.8973701625       17.6081101705       17.6074144341
  C        12.5799007101       17.3365892757       17.3381603957
  N        16.0513041145        3.0794133160        5.2321225731
  C        16.3209083120        1.7617030468        5.5021033158
  N        16.0526957640       13.8987705644       16.0530331077
  C        16.3228470220       12.5811114833       16.3226206317
  N        16.0495241466       19.7627743307       17.6045859232
  C        16.3180842378       21.0803936749       17.3328942408
  N        16.0497649776        8.9430669827        6.7862363867
  C        16.3166444103       10.2607097307        6.5132362502
  N         6.7833642423       19.7629284326        5.2295783503
  C         6.5112560294       21.0805695365        5.4977519031
  N         6.7856007182        8.9398918569       16.0501436688
  C         6.5044510106       10.2571877049       16.3090631267
  N         6.7883399186        3.0768932119       17.6101056689
  C         6.5177870453        1.7593284275       17.3405785526
  N         6.7869734882       13.8986931894        6.7894233249
  C         6.5159066776       12.5811768302        6.5202119984
  N         5.2303373610       16.0523148321        3.0786344947
  C         5.5006113649       16.3210703426        1.7608113304
  N         5.2337202550        5.2303594911       13.8995547027
  C         5.4945077028        5.5092871809       12.5820874473
  N        17.6043344649       16.0503514959       19.7625294632
  C        17.3316691187       16.3178181906       21.0801190870
  N        17.6053633238        5.2296316343        8.9425026469
  C        17.3330766103        5.4972103785       10.2601334479
  N         5.2294366316        6.7846127255       19.7632431321
  C         5.4961566195        6.5116362547       21.0809762187
  N         5.2288640959       17.6051384797        8.9427035546
  C         5.4955944135       17.3318967371       10.2603457455
  N        17.6084370298        6.7896741637        3.0789789151
  C        17.3394413458        6.5189019454        1.7614028132
  N        17.6087406340       17.6080664279       13.8985498661
  C        17.3380518321       17.3387083428       12.5809952814
  N         5.2306985320        3.0789725423        6.7898501590
  C         5.4972830879        1.7612920327        6.5163961824
  N         5.2206701069       13.8957587182       17.5970976334
  C         5.4848825461       12.5780675287       17.3213593406
  N        17.6070936807       19.7635044810        6.7882120741
  C        17.3367888347       21.0810400301        6.5182197226
  N        17.6070111184        8.9429447191       17.6098294389
  C        17.3379035112       10.2604453804       17.3388778078
  N         5.2324878621       19.7607970628       16.0543488105
  C         5.5019021993       21.0785300283       16.3247968603
  N         5.2315261449        8.9428256370        5.2322739833
  C         5.5002431540       10.2605739390        5.5032477859
  N        17.6102418657        3.0787538913       16.0524595343
  C        17.3369620729        1.7610758009       16.3192237741
  N        17.6049800423       13.8990620275        5.2298513733
  C        17.3323129850       12.5814289098        5.4970825544
  N         3.0773968153       16.0503846939       17.6076449268
  C         1.7598399530       16.3170051774       17.3343696553
  N        13.8975461908       16.0514012081        6.7859459235
  C        12.5799275850       16.3188723580        6.5133041541
  N        19.7610743189       16.0530617727        5.2321542315
  C        21.0788067217       16.3227658703        5.5020453253
  N         8.9416926169       16.0466776521       16.0545775164
  C        10.2594611440       16.3174382109       16.3238511097
  N        19.7632433267        6.7965930356       17.6000368045
  C        21.0808587521        6.5296278885       17.3267790437
  N         8.9418746649        6.7864409897        6.7922918630
  C        10.2595135359        6.5169387211        6.5215985699
  N         3.0770541463        6.7863649850        5.2302025161
  C         1.7593704413        6.5146045889        5.4982276429
  N        13.8992096640        6.7850836722       16.0519587547
  C        12.5815953797        6.5122245536       16.3191868735
  N        16.0553369870        5.2319441175       19.7628591536
  C        16.3251255261        5.5018126503       21.0805845172
  N        16.0515656471       16.0534875880        8.9425325519
  C        16.3213925126       16.3233821206       10.2602757169
  N        16.0491306154       17.6068559315        3.0784122771
  C        16.3162309055       17.3341532814        1.7607847621
  N        16.0493371445        6.7855408894       13.8984620620
  C        16.3169082295        6.5133298540       12.5807823180
  N         6.7855801241        5.2289159679        3.0794242809
  C         6.5125341708        5.4957106701        1.7617493674
  N         6.7863966665       16.0506899069       13.8984233238
  C         6.5125865422       16.3169817705       12.5809019752
  N         6.7881502529       17.6038811336       19.7621094147
  C         6.5176898933       17.3343435783       21.0796931161
  N         6.7792731170        6.7966532128        8.9435362330
  C         6.5059891826        6.5297232748       10.2611918231
  N        19.7613160401       17.6090361098        6.7878900572
  C        21.0788594234       17.3388559559        6.5178903915
  N         8.9415766960       17.6039624518       17.6091420684
  C        10.2592010987       17.3340284049       17.3392308195
  N         3.0769491856        5.2298070679        6.7851337789
  C         1.7593898340        5.4982495071        6.5137547567
  N        13.8992752673        5.2293413527       17.6079096480
  C        12.5815763531        5.4963735467       17.3351676925
  N         3.0776535286       17.6051545697       16.0508609445
  C         1.7599823234       17.3324320380       16.3179379749
  N        13.8976245381       17.6072438909        5.2301147979
  C        12.5799483666       17.3348451646        5.4974435779
  N        19.7629825042        5.2407817145       16.0440625739
  C        21.0807770663        5.5142786446       16.3101562158
  N         8.9416880612        5.2319793920        5.2349408659
  C        10.2594564992        5.5016718777        5.5048551917
  N         6.7883653805       19.7608527556       17.6101964004
  C         6.5179335632       21.0785131011       17.3406900346
  N         6.7881438114        8.9430635059        6.7874159275
  C         6.5164659711       10.2605715323        6.5189894065
  N         6.7855609828        3.0789696370        5.2328139489
  C         6.5125923745        1.7613431654        5.4998376958
  N         6.7768510081       13.8957804621       16.0414430563
  C         6.5004106578       12.5780742096       16.3049258072
  N        16.0531191348        3.0787576379       17.6071876980
  C        16.3204201982        1.7611302176       17.3345556645
  N        16.0490656575       13.8990428924        6.7856749739
  C        16.3163305242       12.5814135620        6.5129781592
  N        16.0513391159       19.7632224167        5.2322215799
  C        16.3208919127       21.0809703337        5.5021458168
  N        16.0520751165        8.9426503871       16.0530539798
  C        16.3223088374       10.2604072566       16.3225003528
  N        17.6126773565        6.7864786955       19.7630436673
  C        17.3418243253        6.5171422713       21.0806731237
  N        17.6072860346       17.6095380927        8.9426936336
  C        17.3372698787       17.3394895119       10.2603038282
  N         5.2298151105        6.7849476604        3.0793082850
  C         5.4966663943        6.5116967119        1.7617270856
  N         5.2294436355       17.6054128811       13.8987532825
  C         5.4960454614       17.3322897736       12.5810642878
  N        17.6048706241       16.0508576073        3.0783639412
  C        17.3320636854       16.3181389881        1.7607777949
  N        17.6042957051        5.2289247882       13.8982695234
  C        17.3324674755        5.4970239846       12.5807300600
  N         5.2335441362       16.0465481458       19.7621680793
  C         5.5022521101       16.3178241046       21.0799202636
  N         5.2230634621        5.2410197892        8.9433311218
  C         5.4896082836        5.5141270782       10.2611401845
  N        17.6058392056       19.7625195572       16.0491202488
  C        17.3345029312       21.0802428246       16.3173596331
  N        17.6057365302        8.9431234630        5.2304700845
  C        17.3326667070       10.2607505680        5.4973084489
  N         5.2324740387        3.0771924896       16.0543147263
  C         5.5018237295        1.7594010212       16.3246987720
  N         5.2311557051       13.8989887448        5.2335404421
  C         5.5001228440       12.5813074606        5.5041714978
  N        17.6071007258        3.0790818304        6.7880606955
  C        17.3367278546        1.7616175180        6.5181002947
  N        17.6084052782       13.8985620399       17.6089737500
  C        17.3387974729       12.5810316398       17.3384897971
  N         5.2279264866       19.7626578843        6.7859671571
  C         5.4956873207       21.0803994218        6.5141595484
  N         5.2297394647        8.9398370973       17.6060084842
  C         5.4884945041       10.2571750288       17.3249122896
  N        19.7611836085        6.7863538510        5.2308381998
  C        21.0787732710        6.5144791835        5.4987490381
  N         8.9430397110        6.7843628451       16.0507994894
  C        10.2608127880        6.5119578672       16.3181990349
  N         3.0789562537        6.7861820772       17.6097951793
  C         1.7616344807        6.5254246696       17.3306788256
  N        13.8978899572        6.7890940312        6.7888954096
  C        12.5803005883        6.5183734126        6.5197074618
  N         3.0772244725       16.0519489140        5.2333025845
  C         1.7595268850       16.3221949062        5.5027453832
  N        13.8981884112       16.0519930435       16.0518942135
  C        12.5803506864       16.3203899648       16.3225223191
  N        19.7615813101       16.0497891180       17.6066966668
  C        21.0792431824       16.3164945105       17.3338091473
  N         8.9415494891       16.0507652350        6.7851615400
  C        10.2591800058       16.3185039007        6.5127978756
  N         6.7859368231       17.6084734500        3.0778186416
  C         6.5163863164       17.3371493481        1.7603643139
  N         6.7894490528        6.7859749307       13.8994029064
  C         6.5104141767        6.5250748211       12.5820620033
  N         6.7852448668        5.2288273741       19.7633573593
  C         6.5121817777        5.4956872022       21.0809999409
  N         6.7850321832       16.0495782046        8.9425786818
  C         6.5118961057       16.3162011286       10.2602579537
  N        16.0485385768       17.6063962839       19.7623287718
  C        16.3157620426       17.3338989271       21.0800424504
  N        16.0495804703        6.7855676848        8.9424922638
  C        16.3171908500        6.5132634438       10.2601154057
  N        16.0520628731        5.2343405836        3.0788741175
  C        16.3232075176        5.5033588248        1.7612914700
  N        16.0529703180       16.0521320947       13.8986499703
  C        16.3222329978       16.3227175717       12.5810031628
 Zn        14.7597949903       14.7592548857       14.7595254970
 Cl        13.5278916525       13.5261925082       13.5272425071
 Zn        14.7587686275        3.9408733870        3.9392647138
 Cl        13.5251332548        2.7097888711        2.7067694027
 Zn         3.9382160014       14.7592765500        3.9401041996
 Cl         2.7045449649       13.5261580121        2.7095813662
 Zn         3.9401868514        3.9394831032       14.7606989594
 Cl         2.7078403980        2.7065657243       13.5287120199
 Zn         8.0812362265        8.0793929255       14.7600797346
 Cl         9.3156746218        9.3095052272       13.5276123316
 Zn         8.0794720870       18.9020200658        3.9389917062
 Cl         9.3108586446       20.1359163809        2.7072642852
 Zn        18.9014802837        8.0825078775        3.9400503231
 Cl        20.1341983867        9.3167589945        2.7099740362
 Zn        18.9018781054       18.9012707722       14.7595100421
 Cl        20.1351673624       20.1328323169       13.5273088326
 Zn         8.0813767852       14.7599351469        8.0814227366
 Cl         9.3142478990       13.5289784494        9.3145991280
 Zn         8.0815499411        3.9389787912       18.9024782943
 Cl         9.3130460753        2.7072892806       20.1367278227
 Zn        18.9007585682       14.7596804099       18.9026479823
 Cl        20.1324402637       13.5283032438       20.1366597321
 Zn        18.9007918653        3.9391678871        8.0816422677
 Cl        20.1328445922        2.7075790612        9.3150529739
 Zn        14.7594427936        8.0818915902        8.0819868891
 Cl        13.5285217375        9.3146123200        9.3154465100
 Zn        14.7585788319       18.9019500820       18.9003559887
 Cl        13.5258048122       20.1352555639       20.1313469530
 Zn         3.9392822203        8.0800124902       18.9012118681
 Cl         2.7068457934        9.3133049616       20.1325620679
 Zn         3.9384308608       18.9011505239        8.0821039013
 Cl         2.7065696323       20.1325117150        9.3160323542
 Zn        14.7588327117       14.7603753302        8.0814150520
 Cl        13.5267319722       13.5293993826        9.3154747874
 Zn        14.7612809149        3.9391250851       18.9025648402
 Cl        13.5333452700        2.7058384447       20.1384652525
 Zn         3.9380151841       14.7571703390       18.9004951420
 Cl         2.7059302389       13.5229507693       20.1315189358
 Zn         3.9376581802        3.9406427684        8.0824635434
 Cl         2.7059944230        2.7112928665        9.3186740119
 Zn         8.0800094202        8.0823232127        8.0822971266
 Cl         9.3090773778        9.3144749358        9.3180738662
 Zn         8.0814209228       18.8983277954       18.9021392862
 Cl         9.3159812467       20.1255970368       20.1371414665
 Zn        18.9024900603        8.0823008471       18.9010229763
 Cl        20.1380042134        9.3145786204       20.1302728964
 Zn        18.9006044932       18.9023430253        8.0813997114
 Cl        20.1321375891       20.1344457262        9.3147122511
 Zn        14.7593342812        8.0810107761       14.7603425676
 Cl        13.5289281259        9.3154390788       13.5281130029
 Zn        14.7586034240       18.9023438463        3.9392911161
 Cl        13.5259588779       20.1360983978        2.7084145236
 Zn         3.9388818667        8.0812366953        3.9395682982
 Cl         2.7050252156        9.3158857117        2.7109328353
 Zn         3.9392697825       18.9007072628       14.7605681530
 Cl         2.7065082323       20.1332327076       13.5287865707
 Zn         8.0799198610       14.7575854028       14.7587169099
 Cl         9.3110960189       13.5240314013       13.5262023421
 Zn         8.0811914825        3.9392126003        3.9411137493
 Cl         9.3163664770        2.7057266599        2.7127083790
 Zn        18.9004939055       14.7599041381        3.9392269231
 Cl        20.1340222470       13.5276701402        2.7078935657
 Zn        18.9022562879        3.9402569317       14.7586728628
 Cl        20.1377122178        2.7105144400       13.5267070911
 Zn         6.0098601164        6.0106730966       16.8301123382
 Zn        16.8303356499       16.8307345609       16.8305999929
 Zn        16.8302658147        6.0111431473        6.0108033963
 Zn         6.0098577771       16.8308033053        6.0106626645
 Zn         6.0102408373        6.0110789636        6.0112202915
 Zn        16.8301701474       16.8313723040        6.0107370163
 Zn         6.0103362062       16.8293366117       16.8307446505
 Zn        16.8312075284        6.0109483108       16.8310524697
  N         3.8256275527        6.0034602360       16.8368719550
  N        14.6445058534        6.0118365922        6.0102375324
  N        19.0150440695       16.8294527974       16.8304169931
  N         8.1948646562       16.8301314486        6.0087369378
  N        19.0145889953        6.0096090689        6.0099044911
  N         8.1964000596        6.0080269935       16.8303018515
  N         3.8237621167       16.8297039122        6.0113462087
  N        14.6443924960       16.8307757549       16.8292407369
  N        16.8293866104        3.8258020824        6.0099951168
  N        16.8302692938       14.6452621487       16.8312528852
  N        16.8286556282       19.0160404055       16.8279790945
  N        16.8296166433        8.1965047995        6.0102036802
  N         6.0070346300       19.0161971106        6.0090122467
  N         6.0141332519        8.1934467261       16.8345149805
  N         6.0107224645        3.8236034240       16.8319384474
  N         6.0096589401       14.6454197591        6.0108997355
  N         6.0079152371       16.8309350260        3.8248049554
  N         6.0166452013        6.0031016590       14.6460389794
  N        16.8280929865       16.8299146667       19.0158556041
  N        16.8288817501        6.0090395602        8.1958966912
  N         6.0092971086        6.0085564192       19.0166497708
  N         6.0089131628       16.8293956600        8.1960275655
  N        16.8297238909        6.0123497056        3.8254959369
  N        16.8311580265       16.8297380871       14.6451604711
  N         6.0101019904        3.8255013452        6.0132005110
  N         6.0020291171       14.6423236959       16.8225620448
  N        16.8293737392       19.0167597122        6.0101224996
  N        16.8291230318        8.1962020335       16.8319591768
  N         6.0106230390       19.0141686558       16.8319602206
  N         6.0107452130        8.1963717693        6.0090113194
  N        16.8333567856        3.8253052653       16.8315886471
  N        16.8286823347       14.6456262434        6.0094214686
  N         3.8241726839       16.8296224474       16.8312031369
  N        14.6442033569       16.8308048588        6.0095675414
  N        19.0145975199       16.8311155462        6.0100129116
  N         8.1950825747       16.8251251662       16.8320423374
  N        19.0165474898        6.0168955215       16.8238712708
  N         8.1951903192        6.0090225990        6.0137806592
  N         3.8236821477        6.0089828718        6.0086516290
  N        14.6459029927        6.0089711974       16.8315792680
  N        16.8342554700        6.0088990088       19.0163817759
  N        16.8294711786       16.8314469769        8.1960320702
  N        16.8286613663       16.8304735489        3.8249779939
  N        16.8280688719        6.0083577513       14.6449950008
  N         6.0095717381        6.0088944348        3.8259841276
  N         6.0101508068       16.8301055956       14.6451675315
  N         6.0113445136       16.8247351205       19.0156215463
  N         6.0029106429        6.0170916556        8.1968903735
  C        11.4203130298       15.7682951670       15.7730116858
  H        11.4212572757       14.9927174319       14.9975170472
  C        11.4198812699        4.9522402322        4.9533365347
  H        11.4202846707        4.1771959025        4.1772760838
  C         0.5992380043       15.7722226545        4.9517738501
  H         0.5995265768       14.9969192758        4.1759835455
  C         0.6012012725        4.9627921157       15.7608456802
  H         0.6011788335        4.1863556465       14.9862055965
  C        11.4214210531        7.0613566308       15.7672118513
  H        11.4220681423        7.8362746453       14.9910602517
  C        11.4196357561       17.8841362352        4.9458004365
  H        11.4199912537       18.6592659192        4.1698485329
  C         0.5989375810        7.0641169143        4.9472256238
  H         0.5985808662        7.8391105259        4.1711543018
  C         0.5997618573       17.8815997564       15.7662256800
  H         0.5999911558       18.6568142275       14.9903790557
  C        11.4195746083       15.7673575541        7.0624278092
  H        11.4197342798       14.9913327884        7.8374502782
  C        11.4210525779        4.9448354636       17.8840651590
  H        11.4206302580        4.1688624994       18.6591519331
  C         0.5995480944       15.7653366504       17.8835756073
  H         0.5996749139       14.9896021158       18.6589417153
  C         0.5992801106        4.9471435246        7.0638500875
  H         0.5996393877        4.1710548857        7.8388323204
  C        11.4200442043        7.0676539447        7.0713103949
  H        11.4204059242        7.8429271254        7.8470525892
  C        11.4192508053       17.8858428494       17.8888510915
  H        11.4187216177       18.6617183290       18.6640322726
  C         0.6012511092        7.0792536128       17.8777249392
  H         0.6010113978        7.8536782265       18.6543598625
  C         0.5991953194       17.8891200454        7.0683655530
  H         0.5991778518       18.6650571115        7.8434627805
  C        15.7725124654       11.4209676429       15.7717968441
  H        14.9971564055       11.4216309089       14.9960855792
  C        15.7705251502        0.6013995135        4.9516097092
  H        14.9952775760        0.6016935032        4.1757600641
  C         4.9492263331       11.4211774632        4.9538145174
  H         4.1734616747       11.4218491337        4.1784919511
  C         4.9512239251        0.5989795470       15.7746248751
  H         4.1753397157        0.5990574102       14.9994504744
  C        15.7648927092       11.4210731628        7.0622712448
  H        14.9887752002       11.4210674206        7.8372032900
  C        15.7678574332        0.6009310392       17.8830742998
  H        14.9917790161        0.6011990429       18.6580682328
  C         4.9337136278       11.4177158659       17.8709244876
  H         4.1586368332       11.4181492316       18.6469302385
  C         4.9450254358        0.6007507132        7.0645152238
  H         4.1688308867        0.6006198257        7.8393793899
  C         7.0506569782       11.4176959953       15.7545102931
  H         7.8265721232       11.4179975570       14.9793905044
  C         7.0609327751        0.6011546821        4.9470540336
  H         7.8354008058        0.6015594225        4.1704378967
  C        17.8818865057       11.4211522233        4.9457568765
  H        18.6570707705       11.4212919572        4.1698471155
  C        17.8853917384        0.6005733710       15.7672132220
  H        18.6608535327        0.6004547832       14.9916074491
  C         7.0661192044       11.4207549602        7.0704329948
  H         7.8413348237       11.4204169075        7.8462610525
  C         7.0678833267        0.5990063671       17.8912665147
  H         7.8430893554        0.5993606930       18.6670732360
  C        17.8890157153       11.4206552697       17.8888361473
  H        18.6648311491       11.4204030269       18.6640906573
  C        17.8871921471        0.6014015275        7.0684518501
  H        18.6629764278        0.6016014828        7.8437050720
  C        15.7712979892       15.7727401852       11.4207425923
  H        14.9957444771       14.9972256582       11.4211597419
  C        15.7735226895        4.9524019488        0.6009550126
  H        14.9978362849        4.1769909434        0.6013784305
  C         4.9510302143       15.7690373624        0.6007669876
  H         4.1751616282       14.9938220398        0.6016436956
  C         4.9401736735        4.9628213390       11.4216102271
  H         4.1653197393        4.1865944873       11.4215547276
  C         7.0614197767       15.7649210034       11.4206412988
  H         7.8365777639       14.9889860958       11.4209865119
  C         7.0613017207        4.9439023226        0.6013141939
  H         7.8359699818        4.1675034257        0.6009432757
  C        17.8813428290       15.7666756439        0.6004837598
  H        18.6566976450       14.9909544978        0.6005993339
  C        17.8824708033        4.9459367617       11.4205594671
  H        18.6577804440        4.1701534884       11.4209100821
  C        15.7658111765        7.0628336626       11.4203966606
  H        14.9899116231        7.8379799639       11.4202100181
  C        15.7647084570       17.8835386219        0.6004961379
  H        14.9890309588       18.6589363327        0.6007860382
  C         4.9447872673        7.0608100033        0.6014938439
  H         4.1685145010        7.8355988435        0.6019898857
  C         4.9440137547       17.8810686447       11.4207707693
  H         4.1677498214       18.6558754135       11.4209563721
  C         7.0571664902        7.0791046642       11.4216131318
  H         7.8337766652        7.8535451156       11.4213582368
  C         7.0668775245       17.8865823835        0.5997209922
  H         7.8418153629       18.6626915829        0.5990877774
  C        17.8914743531        7.0679035519        0.6012137630
  H        18.6675346882        7.8428814717        0.6016326535
  C        17.8879020081       17.8896066058       11.4206863854
  H        18.6633650421       18.6652093905       11.4207916436
 Xe         3.4134401627        8.5809603113       14.2349202077
