 DBCSR| CPU Multiplication driver                                           XSMM (U)
 DBCSR| Multrec recursion limit                                              512 (U)
 DBCSR| Multiplication stack size                                           1000 (D)
 DBCSR| Maximum elements for images                                    UNLIMITED (U)
 DBCSR| Multiplicative factor virtual images                                   1 (U)
 DBCSR| Use multiplication densification                                       T (D)
 DBCSR| Multiplication size stacks                                             3 (U)
 DBCSR| Use memory pool for CPU allocation                                     F (U)
 DBCSR| Number of 3D layers                                               SINGLE (U)
 DBCSR| Use MPI memory allocation                                              F (U)
 DBCSR| Use RMA algorithm                                                      F (U)
 DBCSR| Use Communication thread                                               T (U)
 DBCSR| Communication thread load                                             87 (D)
 DBCSR| MPI: My process id                                                     0
 DBCSR| MPI: Number of processes                                             144
 DBCSR| OMP: Current number of threads                                         1
 DBCSR| OMP: Max number of threads                                             1
 DBCSR| Split modifier for TAS multiplication algorithm                  1.0E+00 (U)


  **** **** ******  **  PROGRAM STARTED AT               2024-09-13 03:27:54.368
 ***** ** ***  *** **   PROGRAM STARTED ON                              nid03597
 **    ****   ******    PROGRAM STARTED BY                              bsertcan
 ***** **    ** ** **   PROGRAM PROCESS ID                                 13845
  **** **  *******  **  PROGRAM STARTED IN /scratch/snx3000/bsertcan/MFU_sp/rsca
                                           n/cl/xe/rep64

 CP2K| version string:                 CP2K version 2024.2 (Development Version)
 CP2K| source code revision number:                                  git:42d1e6b
 CP2K| cp2kflags: omp libint fftw3 libxc parallel scalapack xsmm                
 CP2K| is freely available from                            https://www.cp2k.org/
 CP2K| Program compiled at                         Tue Sep  3 22:59:39 CEST 2024
 CP2K| Program compiled on                                              daint106
 CP2K| Program compiled for                                                local
 CP2K| Data directory path                             /users/bsertcan/cp2k/data
 CP2K| Input file name                                                 input.inp

 GLOBAL| Force Environment number                                              1
 GLOBAL| Basis set file name                                    BASIS_MOLOPT_UZH
 GLOBAL| Potential file name                                       POTENTIAL_UZH
 GLOBAL| MM Potential file name                                     MM_POTENTIAL
 GLOBAL| Coordinate file name                                         rep_64.xyz
 GLOBAL| Method name                                                        CP2K
 GLOBAL| Project name                                                 Replica_64
 GLOBAL| Run type                                                         ENERGY
 GLOBAL| FFT library                                                       FFTW3
 GLOBAL| Diagonalization library                                       ScaLAPACK
 GLOBAL| DGEMM library                                                      BLAS
 GLOBAL| Orthonormality check for eigenvectors                          DISABLED
 GLOBAL| Matrix multiplication library                                 ScaLAPACK
 GLOBAL| All-to-all communication in single precision                          F
 GLOBAL| FFTs using library dependent lengths                                  F
 GLOBAL| Grid backend                                                       AUTO
 GLOBAL| Global print level                                                  LOW
 GLOBAL| MPI I/O enabled                                                       T
 GLOBAL| Total number of message passing processes                           144
 GLOBAL| Number of threads for this process                                    1
 GLOBAL| This output is from process                                           0
 GLOBAL| Stack size for threads created by OpenMP (OMP_STACKSIZE)             5M
 GLOBAL| CPU model name                Intel(R) Xeon(R) CPU E5-2690 v3 @ 2.60GHz
 GLOBAL| CPUID                                                              1002

 MEMORY| system memory details [Kb]
 MEMORY|                        rank 0           min           max       average
 MEMORY| MemTotal             65740148      65740148      65740148      65740148
 MEMORY| MemFree              60867364      60861744      61156832      60955480
 MEMORY| Buffers                  7280          6840          8144          7019
 MEMORY| Cached                1843148       1650672       1860780       1792979
 MEMORY| Slab                   218840        211724        219088        215305
 MEMORY| SReclaimable            48748         47412         48748         47990
 MEMORY| MemLikelyFree        62766540      62766540      62861984      62803469


 *******************************************************************************
 *******************************************************************************
 **                                                                           **
 **     #####                         ##              ##                      **
 **    ##   ##            ##          ##              ##                      **
 **   ##     ##                       ##            ######                    **
 **   ##     ##  ##   ##  ##   #####  ##  ##   ####   ##    #####    #####    **
 **   ##     ##  ##   ##  ##  ##      ## ##   ##      ##   ##   ##  ##   ##   **
 **   ##  ## ##  ##   ##  ##  ##      ####     ###    ##   ######   ######    **
 **    ##  ###   ##   ##  ##  ##      ## ##      ##   ##   ##       ##        **
 **     #######   #####   ##   #####  ##  ##  ####    ##    #####   ##        **
 **           ##                                                    ##        **
 **                                                                           **
 **                                                ... make the atoms dance   **
 **                                                                           **
 **            Copyright (C) by CP2K developers group (2000-2024)             **
 **                      J. Chem. Phys. 152, 194103 (2020)                    **
 **                                                                           **
 *******************************************************************************


 TOTAL NUMBERS AND MAXIMUM NUMBERS

  Total number of            - Atomic kinds:                                   6
                             - Atoms:                                        409
                             - Shell sets:                                   409
                             - Shells:                                      3617
                             - Primitive Cartesian functions:               2053
                             - Cartesian basis functions:                  13634
                             - Spherical basis functions:                  11621

  Maximum angular momentum of- Orbital basis functions:                        3
                             - Local part of the GTH pseudopotential:          2
                             - Non-local part of the GTH pseudopotential:      4

  AUX_FIT ADMM-Basis: 
  Total number of            - Shell sets:                                  2799
                             - Shells:                                      2799
                             - Primitive Cartesian functions:               3609
                             - Cartesian basis functions:                   7546
                             - Spherical basis functions:                   6985
                               Maximum angular momentum                        3


 SCF PARAMETERS         Density guess:                                   RESTART
                        --------------------------------------------------------
                        max_scf:                                              10
                        max_scf_history:                                       0
                        max_diis:                                              4
                        --------------------------------------------------------
                        eps_scf:                                        1.00E-06
                        eps_scf_history:                                0.00E+00
                        eps_diis:                                       1.00E-01
                        eps_eigval:                                     1.00E-05
                        --------------------------------------------------------
                        level_shift [a.u.]:                             0.000000
                        --------------------------------------------------------
                        Outer loop SCF in use 
                        No variables optimised in outer loop
                        eps_scf                                         1.00E-06
                        max_scf                                               10
                        No outer loop optimization
                        step_size                                       5.00E-01

 Number of electrons:                                                       2056
 Number of occupied orbitals:                                               1028
 Number of molecular orbitals:                                              1028

 Number of orbital functions:                                              11621
 Number of independent orbital functions:                                  11621

 Extrapolation method: initial_guess

 *** WARNING in qs_initial_guess.F:306 :: User requested to restart the   ***
 *** wavefunction from the file named: Replica_64-RESTART.wfn. This file  ***
 *** does not exist. Please check the existence of the file or change     ***
 *** properly the value of the keyword WFN_RESTART_FILE_NAME. Calculation ***
 *** continues using ATOMIC GUESS.                                        ***



 SCF WAVEFUNCTION OPTIMIZATION

  ----------------------------------- OT ---------------------------------------
  Minimizer      : DIIS                : direct inversion
                                         in the iterative subspace
                                         using   7 DIIS vectors
                                         safer DIIS on
  Preconditioner : FULL_SINGLE_INVERSE : inversion of 
                                         H + eS - 2*(Sc)(c^T*H*c+const)(Sc)^T
  Precond_solver : DEFAULT
  stepsize       :    0.08000000                  energy_gap     :    0.08000000
  eps_taylor     :   0.10000E-15                  max_taylor     :             4
  ----------------------------------- OT ---------------------------------------

  Step     Update method      Time    Convergence         Total energy    Change
  ------------------------------------------------------------------------------
     1 OT DIIS     0.80E-01    6.8     0.01136763     -5010.4279612839 -5.01E+03
     2 OT DIIS     0.80E-01    5.3     0.00711932     -5086.3725722966 -7.59E+01
     3 OT DIIS     0.80E-01    5.3     0.00687190     -5122.5998139170 -3.62E+01
     4 OT DIIS     0.80E-01    5.3     0.00617401     -5140.8289156302 -1.82E+01
     5 OT DIIS     0.80E-01    5.3     0.00339457     -5178.3915280714 -3.76E+01
     6 OT DIIS     0.80E-01    5.3     0.00254503     -5190.2678818037 -1.19E+01
     7 OT DIIS     0.80E-01    5.3     0.00191219     -5197.8833429558 -7.62E+00
     8 OT DIIS     0.80E-01    5.3     0.00128829     -5204.3919173899 -6.51E+00
     9 OT DIIS     0.80E-01    5.3     0.00103709     -5207.0555167686 -2.66E+00
    10 OT DIIS     0.80E-01    5.3     0.00074897     -5209.6274565924 -2.57E+00

  Leaving inner SCF loop after reaching    10 steps.


  Electronic density on regular grids:      -2055.9999999685        0.0000000315
  Core density on regular grids:             2055.9999998531       -0.0000001469
  Total charge density on r-space grids:       -0.0000001154
  Total charge density g-space grids:          -0.0000001154

  Overlap energy of the core charge distribution:               0.00005980166717
  Self energy of the core charge distribution:              -9860.83173999830615
  Core Hamiltonian energy:                                   2932.65907052767034
  Hartree energy:                                            2784.57815275958183
  Exchange-correlation energy:                              -1066.03299968298234

  Total energy:                                             -5209.62745659236953

  outer SCF iter =    1 RMS gradient =   0.75E-03 energy =      -5209.6274565924

  ----------------------------------- OT ---------------------------------------
  Minimizer      : DIIS                : direct inversion
                                         in the iterative subspace
                                         using   7 DIIS vectors
                                         safer DIIS on
  Preconditioner : FULL_SINGLE_INVERSE : inversion of 
                                         H + eS - 2*(Sc)(c^T*H*c+const)(Sc)^T
  Precond_solver : DEFAULT
  stepsize       :    0.08000000                  energy_gap     :    0.08000000
  eps_taylor     :   0.10000E-15                  max_taylor     :             4
  ----------------------------------- OT ---------------------------------------

  Step     Update method      Time    Convergence         Total energy    Change
  ------------------------------------------------------------------------------
     1 OT DIIS     0.80E-01   13.3     0.00118407     -5210.8684997201 -1.24E+00
     2 OT DIIS     0.80E-01    5.3     0.00101108     -5212.1034966611 -1.23E+00
     3 OT DIIS     0.80E-01    5.3     0.00055791     -5213.9199608356 -1.82E+00
     4 OT DIIS     0.80E-01    5.3     0.00046058     -5214.2420080652 -3.22E-01
     5 OT DIIS     0.80E-01    5.3     0.00035251     -5214.3661588528 -1.24E-01
     6 OT DIIS     0.80E-01    5.3     0.00021275     -5214.4639486074 -9.78E-02
     7 OT DIIS     0.80E-01    5.3     0.00014896     -5214.4949238239 -3.10E-02
     8 OT DIIS     0.80E-01    5.3     0.00010843     -5214.5091033286 -1.42E-02
     9 OT DIIS     0.80E-01    5.3     0.00009222     -5214.5241764484 -1.51E-02
    10 OT DIIS     0.80E-01    5.3     0.00007432     -5214.5343257888 -1.01E-02

  Leaving inner SCF loop after reaching    10 steps.


  Electronic density on regular grids:      -2055.9999999685        0.0000000315
  Core density on regular grids:             2055.9999998531       -0.0000001469
  Total charge density on r-space grids:       -0.0000001153
  Total charge density g-space grids:          -0.0000001153

  Overlap energy of the core charge distribution:               0.00005980166717
  Self energy of the core charge distribution:              -9860.83173999830615
  Core Hamiltonian energy:                                   2928.07418697157436
  Hartree energy:                                            2784.96287973171320
  Exchange-correlation energy:                              -1066.73971229540871

  Total energy:                                             -5214.53432578876073

  outer SCF iter =    2 RMS gradient =   0.74E-04 energy =      -5214.5343257888

  ----------------------------------- OT ---------------------------------------
  Minimizer      : DIIS                : direct inversion
                                         in the iterative subspace
                                         using   7 DIIS vectors
                                         safer DIIS on
  Preconditioner : FULL_SINGLE_INVERSE : inversion of 
                                         H + eS - 2*(Sc)(c^T*H*c+const)(Sc)^T
  Precond_solver : DEFAULT
  stepsize       :    0.08000000                  energy_gap     :    0.08000000
  eps_taylor     :   0.10000E-15                  max_taylor     :             4
  ----------------------------------- OT ---------------------------------------

  Step     Update method      Time    Convergence         Total energy    Change
  ------------------------------------------------------------------------------
     1 OT DIIS     0.80E-01   13.3     0.00008201     -5214.5393594769 -5.03E-03
     2 OT DIIS     0.80E-01    5.2     0.00009828     -5214.5455470393 -6.19E-03
     3 OT SD       0.80E-01    5.2     0.00009405     -5214.5467086084 -1.16E-03
     4 OT SD       0.80E-01    5.2     0.00012466     -5214.5550894772 -8.38E-03
     5 OT SD       0.80E-01    5.3     0.00019727     -5214.5660134122 -1.09E-02
     6 OT SD       0.80E-01    5.2     0.00037908     -5214.5729459396 -6.93E-03
     7 OT DIIS     0.80E-01    5.2     0.00078367     -5214.5319818193  4.10E-02
     8 OT DIIS     0.80E-01    5.2     0.00008522     -5214.5429696522 -1.10E-02
     9 OT DIIS     0.80E-01    5.2     0.00008929     -5214.5443119280 -1.34E-03
    10 OT DIIS     0.80E-01    5.2     0.00006357     -5214.5466203970 -2.31E-03

  Leaving inner SCF loop after reaching    10 steps.


  Electronic density on regular grids:      -2056.0000013902       -0.0000013902
  Core density on regular grids:             2055.9999998531       -0.0000001469
  Total charge density on r-space grids:       -0.0000015370
  Total charge density g-space grids:          -0.0000015370

  Overlap energy of the core charge distribution:               0.00005980166717
  Self energy of the core charge distribution:              -9860.83173999830615
  Core Hamiltonian energy:                                   2927.95358047857371
  Hartree energy:                                            2785.05483531028403
  Exchange-correlation energy:                              -1066.72335598925815

  Total energy:                                             -5214.54662039703999

  outer SCF iter =    3 RMS gradient =   0.64E-04 energy =      -5214.5466203970

  ----------------------------------- OT ---------------------------------------
  Minimizer      : DIIS                : direct inversion
                                         in the iterative subspace
                                         using   7 DIIS vectors
                                         safer DIIS on
  Preconditioner : FULL_SINGLE_INVERSE : inversion of 
                                         H + eS - 2*(Sc)(c^T*H*c+const)(Sc)^T
  Precond_solver : DEFAULT
  stepsize       :    0.08000000                  energy_gap     :    0.08000000
  eps_taylor     :   0.10000E-15                  max_taylor     :             4
  ----------------------------------- OT ---------------------------------------

  Step     Update method      Time    Convergence         Total energy    Change
  ------------------------------------------------------------------------------
     1 OT DIIS     0.80E-01   12.8     0.00004424     -5214.5465919798  2.84E-05
     2 OT DIIS     0.80E-01    5.2     0.00007941     -5214.5468065320 -2.15E-04
     3 OT DIIS     0.80E-01    5.2     0.00002935     -5214.5478008574 -9.94E-04
     4 OT DIIS     0.80E-01    5.2     0.00002918     -5214.5482987824 -4.98E-04
     5 OT SD       0.80E-01    5.2     0.00002939     -5214.5484610469 -1.62E-04
     6 OT SD       0.80E-01    5.2     0.00003228     -5214.5493125453 -8.51E-04
     7 OT SD       0.80E-01    5.2     0.00003798     -5214.5503631391 -1.05E-03
     8 OT SD       0.80E-01    5.2     0.00004791     -5214.5518206954 -1.46E-03
     9 OT SD       0.80E-01    5.2     0.00006553     -5214.5540097587 -2.19E-03
    10 OT SD       0.80E-01    5.2     0.00010151     -5214.5572593655 -3.25E-03

  Leaving inner SCF loop after reaching    10 steps.


  Electronic density on regular grids:      -2056.0000005306       -0.0000005306
  Core density on regular grids:             2055.9999998531       -0.0000001469
  Total charge density on r-space grids:       -0.0000006774
  Total charge density g-space grids:          -0.0000006774

  Overlap energy of the core charge distribution:               0.00005980166717
  Self energy of the core charge distribution:              -9860.83173999830615
  Core Hamiltonian energy:                                   2928.00002405923169
  Hartree energy:                                            2785.00881442769560
  Exchange-correlation energy:                              -1066.73441765574262

  Total energy:                                             -5214.55725936545514

  outer SCF iter =    4 RMS gradient =   0.10E-03 energy =      -5214.5572593655

  ----------------------------------- OT ---------------------------------------
  Minimizer      : DIIS                : direct inversion
                                         in the iterative subspace
                                         using   7 DIIS vectors
                                         safer DIIS on
  Preconditioner : FULL_SINGLE_INVERSE : inversion of 
                                         H + eS - 2*(Sc)(c^T*H*c+const)(Sc)^T
  Precond_solver : DEFAULT
  stepsize       :    0.08000000                  energy_gap     :    0.08000000
  eps_taylor     :   0.10000E-15                  max_taylor     :             4
  ----------------------------------- OT ---------------------------------------

  Step     Update method      Time    Convergence         Total energy    Change
  ------------------------------------------------------------------------------
     1 OT DIIS     0.80E-01   12.9     0.00018788     -5214.5607282245 -3.47E-03
     2 OT DIIS     0.80E-01    5.2     0.00041277     -5214.5534008963  7.33E-03
     3 OT SD       0.80E-01    5.2     0.00013636     -5214.5791098379 -2.57E-02
     4 OT SD       0.80E-01    5.2     0.00016840     -5214.5982960788 -1.92E-02
     5 OT SD       0.80E-01    5.3     0.00019915     -5214.6253680987 -2.71E-02
     6 OT SD       0.80E-01    5.3     0.00023214     -5214.6569148330 -3.15E-02
     7 OT SD       0.80E-01    5.3     0.00030114     -5214.6816340162 -2.47E-02
     8 OT SD       0.80E-01    5.3     0.00044626     -5214.6836243286 -1.99E-03
     9 OT DIIS     0.80E-01    5.2     0.00064034     -5214.6497509058  3.39E-02
    10 OT DIIS     0.80E-01    5.3     0.00015427     -5214.5721511299  7.76E-02

  Leaving inner SCF loop after reaching    10 steps.


  Electronic density on regular grids:      -2055.9999999737        0.0000000263
  Core density on regular grids:             2055.9999998531       -0.0000001469
  Total charge density on r-space grids:       -0.0000001206
  Total charge density g-space grids:          -0.0000001206

  Overlap energy of the core charge distribution:               0.00005980166717
  Self energy of the core charge distribution:              -9860.83173999830615
  Core Hamiltonian energy:                                   2927.97036278285213
  Hartree energy:                                            2785.02405145758667
  Exchange-correlation energy:                              -1066.73488517374335

  Total energy:                                             -5214.57215112994436

  outer SCF iter =    5 RMS gradient =   0.15E-03 energy =      -5214.5721511299

  ----------------------------------- OT ---------------------------------------
  Minimizer      : DIIS                : direct inversion
                                         in the iterative subspace
                                         using   7 DIIS vectors
                                         safer DIIS on
  Preconditioner : FULL_SINGLE_INVERSE : inversion of 
                                         H + eS - 2*(Sc)(c^T*H*c+const)(Sc)^T
  Precond_solver : DEFAULT
  stepsize       :    0.08000000                  energy_gap     :    0.08000000
  eps_taylor     :   0.10000E-15                  max_taylor     :             4
  ----------------------------------- OT ---------------------------------------

  Step     Update method      Time    Convergence         Total energy    Change
  ------------------------------------------------------------------------------
     1 OT DIIS     0.80E-01   13.0     0.00027308     -5214.6495777084 -7.74E-02
     2 OT DIIS     0.80E-01    5.2     0.00046951     -5214.6625249417 -1.29E-02
     3 OT DIIS     0.80E-01    5.2     0.00017176     -5214.6962451185 -3.37E-02
     4 OT DIIS     0.80E-01    5.4     0.00012785     -5214.7160697096 -1.98E-02
     5 OT DIIS     0.80E-01    5.3     0.00009263     -5214.7356181615 -1.95E-02
     6 OT DIIS     0.80E-01    5.3     0.00002676     -5214.7392452122 -3.63E-03
     7 OT DIIS     0.80E-01    5.3     0.00001158     -5214.7394200759 -1.75E-04
     8 OT DIIS     0.80E-01    5.3     0.00000892     -5214.7394749343 -5.49E-05
     9 OT DIIS     0.80E-01    5.3     0.00000479     -5214.7395035411 -2.86E-05
    10 OT DIIS     0.80E-01    5.3     0.00000355     -5214.7395161125 -1.26E-05

  Leaving inner SCF loop after reaching    10 steps.


  Electronic density on regular grids:      -2055.9999999685        0.0000000315
  Core density on regular grids:             2055.9999998531       -0.0000001469
  Total charge density on r-space grids:       -0.0000001153
  Total charge density g-space grids:          -0.0000001153

  Overlap energy of the core charge distribution:               0.00005980166717
  Self energy of the core charge distribution:              -9860.83173999830615
  Core Hamiltonian energy:                                   2927.72661753960710
  Hartree energy:                                            2785.10599359176649
  Exchange-correlation energy:                              -1066.74044704725134

  Total energy:                                             -5214.73951611251687

  outer SCF iter =    6 RMS gradient =   0.36E-05 energy =      -5214.7395161125

  ----------------------------------- OT ---------------------------------------
  Minimizer      : DIIS                : direct inversion
                                         in the iterative subspace
                                         using   7 DIIS vectors
                                         safer DIIS on
  Preconditioner : FULL_SINGLE_INVERSE : inversion of 
                                         H + eS - 2*(Sc)(c^T*H*c+const)(Sc)^T
  Precond_solver : DEFAULT
  stepsize       :    0.08000000                  energy_gap     :    0.08000000
  eps_taylor     :   0.10000E-15                  max_taylor     :             4
  ----------------------------------- OT ---------------------------------------

  Step     Update method      Time    Convergence         Total energy    Change
  ------------------------------------------------------------------------------
     1 OT DIIS     0.80E-01   13.3     0.00000220     -5214.7395248466 -8.73E-06
     2 OT DIIS     0.80E-01    5.2     0.00000249     -5214.7395260103 -1.16E-06
     3 OT DIIS     0.80E-01    5.2     0.00000094     -5214.7395274759 -1.47E-06

  *** SCF run converged in     3 steps ***


  Electronic density on regular grids:      -2055.9999999685        0.0000000315
  Core density on regular grids:             2055.9999998531       -0.0000001469
  Total charge density on r-space grids:       -0.0000001153
  Total charge density g-space grids:          -0.0000001153

  Overlap energy of the core charge distribution:               0.00005980166717
  Self energy of the core charge distribution:              -9860.83173999830615
  Core Hamiltonian energy:                                   2927.72890159087092
  Hartree energy:                                            2785.10411907667913
  Exchange-correlation energy:                              -1066.74086794677123

  Total energy:                                             -5214.73952747586009

  outer SCF iter =    7 RMS gradient =   0.94E-06 energy =      -5214.7395274759
  outer SCF loop converged in   7 iterations or   63 steps


 ENERGY| Total FORCE_EVAL ( QS ) energy [a.u.]:            -5214.739527475860086

 -------------------------------------------------------------------------------
 -                                                                             -
 -                                DBCSR STATISTICS                             -
 -                                                                             -
 -------------------------------------------------------------------------------
 COUNTER                                    TOTAL       BLAS       SMM       ACC
 flops    14 x     4 x     4               301056       0.0%    100.0%      0.0%     
 flops     4 x     4 x   976               437248       0.0%    100.0%      0.0%     
 flops    41 x     4 x     4               734720       0.0%    100.0%      0.0%     
 flops     4 x     4 x   974               872704       0.0%    100.0%      0.0%     
 flops     4 x     4 x   962              1077440       0.0%    100.0%      0.0%     
 flops    29 x     4 x     4              4170432       0.0%    100.0%      0.0%     
 flops    14 x    32 x     4             38535168       0.0%    100.0%      0.0%     
 flops    14 x     4 x    32             38535168       0.0%    100.0%      0.0%     
 flops    32 x     4 x   976             55967744       0.0%    100.0%      0.0%     
 flops     4 x    32 x   976             55967744       0.0%    100.0%      0.0%     
 flops    41 x    32 x     4             94044160       0.0%    100.0%      0.0%     
 flops    41 x     4 x    32             94044160       0.0%    100.0%      0.0%     
 flops    32 x     4 x   974            111706112       0.0%    100.0%      0.0%     
 flops     4 x    32 x   974            111706112       0.0%    100.0%      0.0%     
 flops    32 x     4 x   962            137912320       0.0%    100.0%      0.0%     
 flops     4 x    32 x   962            137912320       0.0%    100.0%      0.0%     
 flops    14 x     4 x    14            234823680       0.0%    100.0%      0.0%     
 flops    68 x    68 x    68            270411520       0.0%    100.0%      0.0%     
 flops    29 x    32 x     4            533815296       0.0%    100.0%      0.0%     
 flops    29 x     4 x    32            533815296       0.0%    100.0%      0.0%     
 flops    64 x    68 x    68            763514880       0.0%    100.0%      0.0%     
 flops    68 x    64 x    68            763514880       0.0%    100.0%      0.0%     
 flops    68 x    68 x    64            763514880       0.0%    100.0%      0.0%     
 flops    41 x    14 x    68            824355840       0.0%    100.0%      0.0%     
 flops    14 x    14 x    68           1079248128       0.0%    100.0%      0.0%     
 flops    41 x     4 x    14           1100316672       0.0%    100.0%      0.0%     
 flops    14 x     4 x    41           1100316672       0.0%    100.0%      0.0%     
 flops    64 x    64 x    68           2155806720       0.0%    100.0%      0.0%     
 flops    64 x    68 x    64           2155806720       0.0%    100.0%      0.0%     
 flops    68 x    64 x    64           2155806720       0.0%    100.0%      0.0%     
 flops    41 x    14 x    64           2327592960       0.0%    100.0%      0.0%     
 flops   963 x    68 x    68           2680653024       0.0%    100.0%      0.0%     
 flops    14 x    14 x    64           3047288832       0.0%    100.0%      0.0%     
 flops    68 x    68 x    96           3054059520       0.0%    100.0%      0.0%     
 flops    68 x    96 x    68           3054059520       0.0%    100.0%      0.0%     
 flops    96 x    68 x    68           3054059520       0.0%    100.0%      0.0%     
 flops    41 x     4 x    41           3339837696       0.0%    100.0%      0.0%     
 flops    14 x     4 x    29           3613192128       0.0%    100.0%      0.0%     
 flops    29 x     4 x    14           3613192128       0.0%    100.0%      0.0%     
 flops    68 x    68 x   976           4422763520       0.0%    100.0%      0.0%     
 flops   976 x    68 x    68           5433680896       0.0%    100.0%      0.0%     
 flops    64 x    64 x    64           6086983680       0.0%    100.0%      0.0%     
 flops   963 x    64 x    68           7568902656       0.0%    100.0%      0.0%     
 flops   963 x    68 x    64           7568902656       0.0%    100.0%      0.0%     
 flops    14 x    41 x    68           7898827776       0.0%    100.0%      0.0%     
 flops    64 x    68 x    96           8623226880       0.0%    100.0%      0.0%     
 flops    64 x    96 x    68           8623226880       0.0%    100.0%      0.0%     
 flops    68 x    64 x    96           8623226880       0.0%    100.0%      0.0%     
 flops    68 x    96 x    64           8623226880       0.0%    100.0%      0.0%     
 flops    96 x    64 x    68           8623226880       0.0%    100.0%      0.0%     
 flops    96 x    68 x    64           8623226880       0.0%    100.0%      0.0%     
 flops    68 x    68 x   974           8827400960       0.0%    100.0%      0.0%     
 flops    41 x    14 x    96           9310371840       0.0%    100.0%      0.0%     
 flops    14 x    32 x    32          10173284352       0.0%    100.0%      0.0%     
 flops   974 x    68 x    68          10845092608       0.0%    100.0%      0.0%     
 flops    68 x    68 x   962          10898305600       0.0%    100.0%      0.0%     
 flops    14 x    14 x    96          12189155328       0.0%    100.0%      0.0%     
 flops    64 x    68 x   976          12487802880       0.0%    100.0%      0.0%     
 flops    68 x    64 x   976          12487802880       0.0%    100.0%      0.0%     
 flops    41 x    41 x    68          13251497824       0.0%    100.0%      0.0%     
 flops   962 x    68 x    68          13389346880       0.0%    100.0%      0.0%     
 flops    14 x    29 x    68          13451942784       0.0%    100.0%      0.0%     
 flops    32 x    32 x   976          14775484416       0.0%    100.0%      0.0%     
 flops   976 x    64 x    68          15342157824       0.0%    100.0%      0.0%     
 flops   976 x    68 x    64          15342157824       0.0%    100.0%      0.0%     
 flops    29 x    14 x    68          17703133056       0.0%    100.0%      0.0%     
 flops    41 x     4 x    29          17770851072       0.0%    100.0%      0.0%     
 flops    29 x     4 x    41          17770851072       0.0%    100.0%      0.0%     
 flops   963 x    68 x   976          17895467520       0.0%    100.0%      0.0%     
 flops   963 x    64 x    64          21371019264       0.0%    100.0%      0.0%     
 flops    14 x    41 x    64          22302572544       0.0%    100.0%      0.0%     
 flops    64 x    64 x    96          24347934720       0.0%    100.0%      0.0%     
 flops    64 x    96 x    64          24347934720       0.0%    100.0%      0.0%     
 flops    96 x    64 x    64          24347934720       0.0%    100.0%      0.0%     
 flops    41 x    32 x    32          24827658240       0.0%    100.0%      0.0%     
 flops    64 x    68 x   974          24924426240       0.0%    100.0%      0.0%     
 flops    68 x    64 x   974          24924426240       0.0%    100.0%      0.0%     
 flops    32 x    32 x   974          29490413568       0.0%    100.0%      0.0%     
 flops   963 x    68 x    96          30275610624       0.0%    100.0%      0.0%     
 flops   963 x    96 x    68          30275610624       0.0%    100.0%      0.0%     
 flops   974 x    64 x    68          30621437952       0.0%    100.0%      0.0%     
 flops   974 x    68 x    64          30621437952       0.0%    100.0%      0.0%     
 flops    64 x    68 x   962          30771686400       0.0%    100.0%      0.0%     
 flops    68 x    64 x   962          30771686400       0.0%    100.0%      0.0%     
 flops    96 x    96 x    68          34492907520       0.0%    100.0%      0.0%     
 flops    68 x    96 x    96          34492907520       0.0%    100.0%      0.0%     
 flops    96 x    68 x    96          34492907520       0.0%    100.0%      0.0%     
 flops    64 x    64 x   976          35259678720       0.0%    100.0%      0.0%     
 flops   963 x    68 x   974          35717592960       0.0%    100.0%      0.0%     
 flops   976 x    68 x   976          36274094080       0.0%    100.0%      0.0%     
 flops    32 x    32 x   962          36408852480       0.0%    100.0%      0.0%     
 flops    41 x    41 x    64          37415993856       0.0%    100.0%      0.0%     
 flops   962 x    64 x    68          37805214720       0.0%    100.0%      0.0%     
 flops   962 x    68 x    64          37805214720       0.0%    100.0%      0.0%     
 flops    14 x    29 x    64          37981956096       0.0%    100.0%      0.0%     
 flops   976 x    64 x    64          43319033856       0.0%    100.0%      0.0%     
 flops   963 x    68 x   962          44096925600       0.0%    100.0%      0.0%     
 flops    68 x    96 x   976          49951211520       0.0%    100.0%      0.0%     
 flops    96 x    68 x   976          49951211520       0.0%    100.0%      0.0%     
 flops    29 x    14 x    64          49985316864       0.0%    100.0%      0.0%     
 flops   963 x    64 x   976          50528378880       0.0%    100.0%      0.0%     
 flops    29 x    41 x    68          58929465312       0.0%    100.0%      0.0%     
 flops    14 x    32 x    14          60114862080       0.0%    100.0%      0.0%     
 flops   976 x    68 x    96          61368631296       0.0%    100.0%      0.0%     
 flops   976 x    96 x    68          61368631296       0.0%    100.0%      0.0%     
 flops    29 x     4 x    29          63546094560       0.0%    100.0%      0.0%     
 flops    64 x    64 x   974          70374850560       0.0%    100.0%      0.0%     
 flops   976 x    68 x   974          72399523840       0.0%    100.0%      0.0%     
 flops   974 x    68 x   976          72399523840       0.0%    100.0%      0.0%     
 flops    41 x    29 x    68          79544784864       0.0%    100.0%      0.0%     
 flops   963 x    64 x    96          85484077056       0.0%    100.0%      0.0%     
 flops   963 x    96 x    64          85484077056       0.0%    100.0%      0.0%     
 flops   974 x    64 x    64          86460530688       0.0%    100.0%      0.0%     
 flops    64 x    64 x   962          86884761600       0.0%    100.0%      0.0%     
 flops    14 x    41 x    96          89210290176       0.0%    100.0%      0.0%     
 flops   976 x    68 x   962          89384422400       0.0%    100.0%      0.0%     
 flops   962 x    68 x   976          89384422400       0.0%    100.0%      0.0%     
 flops    96 x    96 x    64          97391738880       0.0%    100.0%      0.0%     
 flops    64 x    96 x    96          97391738880       0.0%    100.0%      0.0%     
 flops    96 x    64 x    96          97391738880       0.0%    100.0%      0.0%     
 flops    68 x    96 x   974          99697704960       0.0%    100.0%      0.0%     
 flops    96 x    68 x   974          99697704960       0.0%    100.0%      0.0%     
 flops   963 x    64 x   974         100849674240       0.0%    100.0%      0.0%     
 flops   976 x    64 x   976         102420971520       0.0%    100.0%      0.0%     
 flops   962 x    64 x    64         106744135680       0.0%    100.0%      0.0%     
 flops   974 x    96 x    68         122485751808       0.0%    100.0%      0.0%     
 flops   974 x    68 x    96         122485751808       0.0%    100.0%      0.0%     
 flops    68 x    96 x   962         123086745600       0.0%    100.0%      0.0%     
 flops    96 x    68 x   962         123086745600       0.0%    100.0%      0.0%     
 flops   963 x    64 x   962         124508966400       0.0%    100.0%      0.0%     
 flops    29 x    32 x    32         140927238144       0.0%    100.0%      0.0%     
 flops    64 x    96 x   976         141038714880       0.0%    100.0%      0.0%     
 flops    96 x    64 x   976         141038714880       0.0%    100.0%      0.0%     
 flops   974 x    68 x   974         144502328320       0.0%    100.0%      0.0%     
 flops    41 x    41 x    96         149663975424       0.0%    100.0%      0.0%     
 flops   962 x    68 x    96         151220858880       0.0%    100.0%      0.0%     
 flops   962 x    96 x    68         151220858880       0.0%    100.0%      0.0%     
 flops    14 x    29 x    96         151927824384       0.0%    100.0%      0.0%     
 flops    29 x    41 x    64         166389078528       0.0%    100.0%      0.0%     
 flops   976 x    64 x    96         173276135424       0.0%    100.0%      0.0%     
 flops   976 x    96 x    64         173276135424       0.0%    100.0%      0.0%     
 flops   962 x    68 x   974         178402515200       0.0%    100.0%      0.0%     
 flops   974 x    68 x   962         178402515200       0.0%    100.0%      0.0%     
 flops    29 x    14 x    96         199941267456       0.0%    100.0%      0.0%     
 flops   963 x    96 x   976         202113515520       0.0%    100.0%      0.0%     
 flops   976 x    64 x   974         204422184960       0.0%    100.0%      0.0%     
 flops   974 x    64 x   976         204422184960       0.0%    100.0%      0.0%     
 flops   962 x    68 x   962         220255672000       0.0%    100.0%      0.0%     
 flops    41 x    29 x    64         224597039616       0.0%    100.0%      0.0%     
 flops   976 x    64 x   962         252379545600       0.0%    100.0%      0.0%     
 flops   962 x    64 x   976         252379545600       0.0%    100.0%      0.0%     
 flops    29 x    29 x    68         264148970104       0.0%    100.0%      0.0%     
 flops    64 x    96 x   974         281499402240       0.0%    100.0%      0.0%     
 flops    96 x    64 x   974         281499402240       0.0%    100.0%      0.0%     
 flops    41 x    32 x    14         281681068032       0.0%    100.0%      0.0%     
 flops    14 x    32 x    41         281681068032       0.0%    100.0%      0.0%     
 flops   963 x    96 x    96         341936308224       0.0%    100.0%      0.0%     
 flops   974 x    96 x    64         345842122752       0.0%    100.0%      0.0%     
 flops   974 x    64 x    96         345842122752       0.0%    100.0%      0.0%     
 flops    64 x    96 x   962         347539046400       0.0%    100.0%      0.0%     
 flops    96 x    64 x   962         347539046400       0.0%    100.0%      0.0%     
 flops    96 x    96 x    96         389566955520       0.0%    100.0%      0.0%     
 flops   963 x    96 x   974         403398696960       0.0%    100.0%      0.0%     
 flops   974 x    64 x   974         408006574080       0.0%    100.0%      0.0%     
 flops   976 x    96 x   976         409683886080       0.0%    100.0%      0.0%     
 flops   962 x    64 x    96         426976542720       0.0%    100.0%      0.0%     
 flops   962 x    96 x    64         426976542720       0.0%    100.0%      0.0%     
 flops   963 x    96 x   962         498035865600       0.0%    100.0%      0.0%     
 flops   962 x    64 x   974         503724748800       0.0%    100.0%      0.0%     
 flops   974 x    64 x   962         503724748800       0.0%    100.0%      0.0%     
 flops    96 x    96 x   976         564154859520       0.0%    100.0%      0.0%     
 flops   962 x    64 x   962         621898368000       0.0%    100.0%      0.0%     
 flops    29 x    41 x    96         665556314112       0.0%    100.0%      0.0%     
 flops   976 x    96 x    96         693104541696       0.0%    100.0%      0.0%     
 flops    29 x    29 x    64         745832386176       0.0%    100.0%      0.0%     
 flops   974 x    96 x   976         817688739840       0.0%    100.0%      0.0%     
 flops   976 x    96 x   974         817688739840       0.0%    100.0%      0.0%     
 flops    41 x    32 x    41         854998450176       0.0%    100.0%      0.0%     
 flops    41 x    29 x    96         898388158464       0.0%    100.0%      0.0%     
 flops    14 x    32 x    29         924977184768       0.0%    100.0%      0.0%     
 flops    29 x    32 x    14         924977184768       0.0%    100.0%      0.0%     
 flops   976 x    96 x   962        1009518182400       0.0%    100.0%      0.0%     
 flops   962 x    96 x   976        1009518182400       0.0%    100.0%      0.0%     
 flops    96 x    96 x   974        1125997608960       0.0%    100.0%      0.0%     
 flops   974 x    96 x    96        1383368491008       0.0%    100.0%      0.0%     
 flops    96 x    96 x   962        1390156185600       0.0%    100.0%      0.0%     
 flops   974 x    96 x   974        1632026296320       0.0%    100.0%      0.0%     
 flops   962 x    96 x    96        1707906170880       0.0%    100.0%      0.0%     
 flops   974 x    96 x   962        2014898995200       0.0%    100.0%      0.0%     
 flops   962 x    96 x   974        2014898995200       0.0%    100.0%      0.0%     
 flops   962 x    96 x   962        2487593472000       0.0%    100.0%      0.0%     
 flops    29 x    29 x    96        2983329544704       0.0%    100.0%      0.0%     
 flops    41 x    32 x    29        4549337874432       0.0%    100.0%      0.0%     
 flops    29 x    32 x    41        4549337874432       0.0%    100.0%      0.0%     
 flops    29 x    32 x    29       16267800207360       0.0%    100.0%      0.0%     
 flops inhomo. stacks               2145600312576     100.0%      0.0%      0.0%
 flops total                        69.789168E+12       3.1%     96.9%      0.0%
 flops max/rank                    557.539968E+09       3.1%     96.9%      0.0%
 matmuls inhomo. stacks                     49287     100.0%      0.0%      0.0%
 matmuls total                          589713690       0.0%    100.0%      0.0%
 number of processed stacks               5690705       0.8%     99.2%      0.0%
 average stack size                                     1.1     104.5       0.0
 marketing flops                    97.496747E+12
 -------------------------------------------------------------------------------
 # multiplications                           1301
 max memory usage/rank             601.288704E+06
 # max total images/rank                        1
 # max 3D layers                                1
 # MPI messages exchanged                 4121568
 MPI messages size (bytes):
  total size                         3.421399E+12
  min size                           0.000000E+00
  max size                           7.620608E+06
  average size                     830.120750E+03
 MPI breakdown and total messages size (bytes):
             size <=      128               32340                        0
       128 < size <=     8192                   0                        0
      8192 < size <=    32768              116556               3809224320
     32768 < size <=   131072             1734480             104831457280
    131072 < size <=  4194304             1880208            1247871904928
   4194304 < size <= 16777216              357984            2064877701040
  16777216 < size                               0                        0
 -------------------------------------------------------------------------------
 -                                                                             -
 -                      DBCSR MESSAGE PASSING PERFORMANCE                      -
 -                                                                             -
 -------------------------------------------------------------------------------
 ROUTINE             CALLS      AVE VOLUME [Bytes]
 MP_Bcast              196                     12.
 MP_Allreduce         7270                     21.
 MP_Alltoall          4643                 164384.
 MP_ISend            62420                 392308.
 MP_IRecv            62420                 389885.
 -------------------------------------------------------------------------------

 -------------------------------------------------------------------------------
 -                                                                             -
 -                                DBM STATISTICS                               -
 -                                                                             -
 -------------------------------------------------------------------------------
    M  x    N  x    K                                          COUNT     PERCENT
 -------------------------------------------------------------------------------

 -------------------------------------------------------------------------------
 -                                                                             -
 -                                GRID STATISTICS                              -
 -                                                                             -
 -------------------------------------------------------------------------------
 LP    KERNEL             BACKEND                              COUNT     PERCENT
 6     collocate ortho    CPU                               17094464      21.42%
 8     collocate ortho    CPU                               16897856      21.17%
 6     integrate ortho    CPU                               16827363      21.08%
 8     integrate ortho    CPU                               16633827      20.84%
 5     collocate ortho    CPU                                3003712       3.76%
 7     collocate ortho    CPU                                3003712       3.76%
 5     integrate ortho    CPU                                2956779       3.70%
 7     integrate ortho    CPU                                2956779       3.70%
 4     collocate ortho    CPU                                 196608       0.25%
 4     integrate ortho    CPU                                 193536       0.24%
 0     collocate general  CPU                                  58896       0.07%
 -------------------------------------------------------------------------------

 MEMORY| Estimated peak process memory [MiB]                                 574

 -------------------------------------------------------------------------------
 -                                                                             -
 -                         MESSAGE PASSING PERFORMANCE                         -
 -                                                                             -
 -------------------------------------------------------------------------------

 ROUTINE             CALLS      AVE VOLUME [Bytes]
 MP_Group                4
 MP_Bcast             4748                3154323.
 MP_Allreduce        11415                   2952.
 MP_Sync                37
 MP_Alltoall          2172               16927847.
 MP_SendRecv         36608                  98624.
 MP_ISendRecv        36036                  98624.
 MP_Wait             59450
 MP_comm_split          33
 MP_ISend            21378                 575456.
 MP_IRecv            21378                 575470.
 -------------------------------------------------------------------------------


 -------------------------------------------------------------------------------
 -                                                                             -
 -                           R E F E R E N C E S                               -
 -                                                                             -
 -------------------------------------------------------------------------------
 
 CP2K version 2024.2 (Development Version), the CP2K developers group (2024).
 CP2K is freely available from https://www.cp2k.org/ .
 
 T. D. Kuehne, M. Iannuzzi, M. Del Ben, V. V. Rybkin, P. Seewald, F. Stein, T. 
 Laino, R. Z. Khaliullin, O. Schuett, F. Schiffmann, D. Golze, J. Wilhelm, S. 
 Chulkov, M. H. Bani-Hashemian, V. Weber, U. Borstnik, M. Taillefumier, A. S. 
 Jakobovits, A. Lazzaro, H. Pabst, T. Mueller, R. Schade, M. Guidon, S. 
 Andermatt, N. Holmberg, G. K. Schenter, A. Hehn, A. Bussy, F. Belleflamme, G. 
 Tabacchi, A. Gloess, M. Lass, I. Bethune, C. J. Mundy, C. Plessl, M. Watkins, 
 J. VandeVondele, M. Krack, J. Hutter.
 J. Chem. Phys. 152, 194103 (2020).
 CP2K: An electronic structure and molecular dynamics software package - 
 Quickstep: Efficient and accurate electronic structure calculations.
 https://doi.org/10.1063/5.0007045

 S. Lehtola, C. Steigemann, M. J. T. Oliveira, M. A. L. Marques.
 SoftwareX 7, 1-5 (2018).
 Recent developments in libxc - A comprehensive library of functionals for 
 density functional theory.
 https://doi.org/10.1016/j.softx.2017.11.002

 O. Schuett, P. Messmer, J. Hutter, J. VandeVondele.
 Electronic Structure Calculations on Graphics Processing Units, 173-190 (2016).
 GPU-Accelerated Sparse Matrix-Matrix Multiplication for Linear Scaling Density 
 Functional Theory.
 https://doi.org/10.1002/9781118670712.ch8

 A. Heinecke, G. Henry, M. Hutchinson, H. Pabst.
 Proceedings of Intl. Supercomputing Conference, 981-991 (2016).
 LIBXSMM: Accelerating Small Matrix Multiplications by Runtime Code Generation.
 https://doi.org/10.1109/SC.2016.83

 J. Hutter, M. Iannuzzi, F. Schiffmann, J. VandeVondele.
 WIREs Comput Mol Sci. 4, 15-25 (2014).
 CP2K: atomistic simulations of condensed matter systems.
 https://doi.org/10.1002/wcms.1159

 U. Borstnik, J. VandeVondele, V. Weber, J. Hutter.
 Parallel Comput. 40, 47-58 (2014).
 Sparse matrix multiplication: The distributed block-compressed sparse row 
 library.
 https://doi.org/10.1016/j.parco.2014.03.012

 M. A. L. Marques, M. J. T. Oliveira, T. Burnus.
 Comput. Phys. Commun. 183, 2272-2281 (2012).
 LIBXC: A library of exchange and correlation functionals for density functional 
 theory.
 https://doi.org/10.1016/j.cpc.2012.05.007

 J. VandeVondele, J. Hutter.
 J. Chem. Phys. 127, 114105 (2007).
 Gaussian basis sets for accurate calculations on molecular systems in gas and 
 condensed phases.
 https://doi.org/10.1063/1.2770708

 J. VandeVondele, M. Krack, F. Mohamed, M. Parrinello, T. Chassaing, J. Hutter.
 Comput. Phys. Commun. 167, 103-128 (2005).
 QUICKSTEP: Fast and accurate density functional calculations using a mixed 
 Gaussian and plane waves approach.
 https://doi.org/10.1016/j.cpc.2004.12.014

 M. Krack.
 Theor. Chem. Acc. 114, 145-152 (2005).
 Pseudopotentials for H to Kr optimized for gradient-corrected 
 exchange-correlation functionals.
 https://doi.org/10.1007/s00214-005-0655-y

 M. Frigo, S. G. Johnson.
 Proc. IEEE 93, 216-231 (2005).
 The design and implementation of FFTW3.
 https://doi.org/10.1109/JPROC.2004.840301

 J. VandeVondele, J. Hutter.
 J. Chem. Phys. 118, 4365-4369 (2003).
 An efficient orbital transformation method for electronic structure 
 calculations.
 https://doi.org/10.1063/1.1543154

 C. Hartwigsen, S. Goedecker, J. Hutter.
 Phys. Rev. B 58, 3641-3662 (1998).
 Relativistic separable dual-space Gaussian pseudopotentials from H to Rn.
 https://doi.org/10.1103/PhysRevB.58.3641

 G. Lippert, J. Hutter, M. Parrinello.
 Mol. Phys. 92, 477-487 (1997).
 A hybrid Gaussian and plane wave density functional scheme.
 https://doi.org/10.1080/002689797170220

 S. Goedecker, M. Teter, J. Hutter.
 Phys. Rev. B 54, 1703-1710 (1996).
 Separable dual-space Gaussian pseudopotentials.
 https://doi.org/10.1103/PhysRevB.54.1703


 -------------------------------------------------------------------------------
 -                                                                             -
 -                                T I M I N G                                  -
 -                                                                             -
 -------------------------------------------------------------------------------
 SUBROUTINE                       CALLS  ASD         SELF TIME        TOTAL TIME
                                MAXIMUM       AVERAGE  MAXIMUM  AVERAGE  MAXIMUM
 CP2K                                 1  1.0    0.016    0.037  354.687  354.688
 qs_energies                          1  2.0    0.007    0.009  352.978  352.981
 scf_env_do_scf                       1  3.0    0.000    0.000  350.228  350.230
 scf_env_do_scf_inner_loop           63  4.0    0.001    0.032  310.122  310.649
 qs_ks_update_qs_env                 70  5.0    0.000    0.001  198.147  198.476
 rebuild_ks_matrix                   63  6.0    0.000    0.000  197.982  198.314
 qs_ks_build_kohn_sham_matrix        63  7.0    0.009    0.011  197.982  198.314
 sum_up_and_integrate                63  8.0    0.003    0.005  101.438  101.448
 integrate_v_rspace                 126  9.0    0.005    0.007  101.032  101.046
 qs_rho_update_rho_low               64  5.0    0.000    0.000   98.720   98.813
 calculate_rho_elec                 128  6.0    0.288    0.294   98.719   98.812
 fft_wrap_pw1pw2                   1649  9.9    0.035    0.049   79.483   82.159
 qs_vxc_create                       63  8.0    0.001    0.002   79.620   79.648
 xc_vxc_pw_create                    63  9.0    0.611    0.692   79.619   79.646
 fft_wrap_pw1pw2_500                887 11.3    3.403    3.460   75.198   77.885
 grid_integrate_task_list           126 10.0   60.299   64.286   60.299   64.286
 fft3d_ps                          1649 11.9   29.114   29.885   61.065   63.955
 grid_collocate_task_list           128  7.0   52.098   55.852   52.098   55.852
 xc_rho_set_and_dset_create          63 10.0    0.612    0.713   52.973   53.610
 density_rs2pw                      128  7.0    0.009    0.010   45.237   48.560
 dbcsr_multiply_generic            1301 10.0    0.073    0.080   41.016   41.858
 xc_pw_derive                       378 11.0    0.008    0.009   37.271   40.009
 init_scf_loop                        7  4.0    0.000    0.000   39.972   40.006
 qs_scf_new_mos                      63  5.0    0.000    0.000   36.704   37.350
 qs_scf_loop_do_ot                   63  6.0    0.000    0.000   36.704   37.349
 potential_pw2rs                    126 10.0    0.025    0.027   35.555   35.592
 multiply_cannon                   1301 11.0    0.104    0.126   32.704   34.602
 ot_scf_mini                         63  7.0    0.001    0.002   33.913   34.493
 xc_functional_eval                 126 11.0    0.001    0.002   33.522   34.100
 libxc_lda_eval                     126 12.0   33.519   34.096   33.521   34.099
 multiply_cannon_loop              1301 12.0    0.142    0.151   30.548   32.438
 xc_pw_divergence                    63 10.0    0.005    0.005   25.473   28.061
 mp_alltoall_z22v                  1649 13.9   22.655   25.206   22.655   25.206
 transfer_rs2pw                     513  8.0    0.008    0.013   20.163   23.521
 multiply_cannon_multrec          15612 13.0   20.035   22.723   20.044   22.732
 transfer_pw2rs                     504 11.0    0.007    0.010   22.046   22.064
 mp_waitall_1                    183784 13.8   15.417   20.776   15.417   20.776
 ot_mini                             63  8.0    0.000    0.001   18.957   19.606
 yz_to_x                            700 12.6    4.380    4.946   16.167   18.686
 mp_waitany                       21378 11.5   14.664   18.438   14.664   18.438
 x_to_yz                            695 13.4    4.760    4.853   15.617   15.962
 prepare_preconditioner               7  5.0    0.000    0.000   15.731   15.806
 make_preconditioner                  7  6.0    0.000    0.000   15.731   15.806
 transfer_rs2pw_500                 129  9.0    4.585    5.373   12.074   15.769
 transfer_pw2rs_500                 126 12.0    5.200    6.026   12.800   13.780
 make_full_inverse_cholesky           7  7.0    0.000    0.000   10.233   10.339
 apply_preconditioner_dbcsr          70 10.0    0.000    0.000    9.795   10.183
 apply_single                        70 11.0    0.000    0.001    9.795   10.183
 mp_alltoall_d11v                  1193 11.5    6.421   10.050    6.421   10.050
 qs_ot_get_derivative                63  9.0    0.001    0.001    9.359    9.949
 multiply_cannon_metrocomm3       15612 13.0    0.045    0.054    2.224    9.864
 ot_diis_step                        63  9.0    0.004    0.004    9.544    9.545
 rs_gather_matrices                 126 10.0    0.271    0.321    5.172    8.957
 multiply_cannon_metrocomm1       15612 13.0    0.059    0.065    6.443    8.844
 qs_ot_get_p                         70  7.8    0.000    0.001    7.052    7.898
 -------------------------------------------------------------------------------

 The number of warnings for this run is : 1
 
 -------------------------------------------------------------------------------
  **** **** ******  **  PROGRAM ENDED AT                 2024-09-13 03:33:49.570
 ***** ** ***  *** **   PROGRAM RAN ON                                  nid03597
 **    ****   ******    PROGRAM RAN BY                                  bsertcan
 ***** **    ** ** **   PROGRAM PROCESS ID                                 13845
  **** **  *******  **  PROGRAM STOPPED IN /scratch/snx3000/bsertcan/MFU_sp/rsca
                                           n/cl/xe/rep64
