 POWELL| Error in trust region
 POWELL| Error in trust region
              XSMM
 DBCSR| Multrec recursion limit                                              512
 DBCSR| Multiplication stack size                                          30000
 DBCSR| Maximum elements for images                                    UNLIMITED
 DBCSR| Multiplicative factor virtual images                                   1
 DBCSR| Use multiplication densification                                       F
 DBCSR| Multiplication size stacks                                             3
 DBCSR| Use memory pool for CPU allocation                                     F
 DBCSR| Number of 3D layers                                               SINGLE
 DBCSR| Use MPI memory allocation                                              F
 DBCSR| Use RMA algorithm                                                      F
 DBCSR| Use Communication thread                                               T
 DBCSR| Communication thread load                                             75
 DBCSR| MPI: My node id                                                        0
 DBCSR| MPI: Number of nodes                                                1536
 DBCSR| OMP: Current number of threads                                         4
 DBCSR| OMP: Max number of threads                                             4
 DBCSR| ACC: Number of devices/node                                            1
 DBCSR| ACC: Number of stack-buffers per thread                                8
 DBCSR| ACC: Avoid driver after busy                                           F
 DBCSR| ACC: Process inhomogeneous stacks                                      T
 DBCSR| ACC: Min. flop for processing                                          0
 DBCSR| ACC: Min. flop for sorting                                          4000
 DBCSR| ACC: Number of binning bins                                         4096
 DBCSR| ACC: Size of binning bins                                             16
 DBCSR| Split modifier for TAS multiplication algorithm                  1.0E+00


  **** **** ******  **  PROGRAM STARTED AT               2022-10-18 08:24:59.610
 ***** ** ***  *** **   PROGRAM STARTED ON                              nid01947
 **    ****   ******    PROGRAM STARTED BY                                 ahehn
 ***** **    ** ** **   PROGRAM PROCESS ID                                 22971
  **** **  *******  **  PROGRAM STARTED IN /scratch/snx3000/ahehn/OKTOBER_2022_M
                                           FU_MOFS/Br_Xe_MOF/wB97X_mfs

 CP2K| version string:                 CP2K version 2022.1 (Development Version)
 CP2K| source code revision number:                                  git:d96d251
 CP2K| cp2kflags: omp libint fftw3 libxc pexsi elpa elpa_nvidia_gpu parallel mpi
 CP2K|            3 scalapack cosma xsmm dbcsr_acc max_contr=4 plumed2 spglib si
 CP2K|            irius libvori libbqb offload_cuda no_offload_pw spla_gemm_offl
 CP2K|            loading
 CP2K| is freely available from                            https://www.cp2k.org/
 CP2K| Program compiled at                         Fri Aug 26 13:48:55 CEST 2022
 CP2K| Program compiled on                                              daint102
 CP2K| Program compiled for                                        CRAY-XC50-gnu
 CP2K| Data directory path      /scratch/snx3000/ahehn/cp2k_master_26august/data
 CP2K| Input file name                                  input_WB97X2_TZbasis.inp

 GLOBAL| Force Environment number                                              1
 GLOBAL| Basis set file name                                      BASIS_ADMM_UZH
 GLOBAL| Potential file name                                       POTENTIAL_UZH
 GLOBAL| MM Potential file name                                     MM_POTENTIAL
 GLOBAL| Coordinate file name                           mfs_br_xe_pbesol_opt.xyz
 GLOBAL| Method name                                                        CP2K
 GLOBAL| Project name                                               br_kr_wB97X2
 GLOBAL| Run type                                                         ENERGY
 GLOBAL| FFT library                                                       FFTW3
 GLOBAL| Diagonalization library                                       ScaLAPACK
 GLOBAL| Orthonormality check for eigenvectors                          DISABLED
 GLOBAL| Matrix multiplication library                                     COSMA
 GLOBAL| All-to-all communication in single precision                          F
 GLOBAL| FFTs using library dependent lengths                                  F
 GLOBAL| Grid backend                                                       AUTO
 GLOBAL| Global print level                                               MEDIUM
 GLOBAL| MPI I/O enabled                                                       T
 GLOBAL| Total number of message passing processes                          1536
 GLOBAL| Number of threads for this process                                    4
 GLOBAL| This output is from process                                           0
 GLOBAL| Stack size for threads created by OpenMP (OMP_STACKSIZE)        default
 GLOBAL| CPU model name                Intel(R) Xeon(R) CPU E5-2690 v3 @ 2.60GHz
 GLOBAL| CPUID                                                              1002

 MEMORY| system memory details [Kb]
 MEMORY|                        rank 0           min           max       average
 MEMORY| MemTotal             65740148      65740148      65740148      65740148
 MEMORY| MemFree              60529952      59807124      60626704      60350507
 MEMORY| Buffers                  7536          5968          8580          6667
 MEMORY| Cached                2248644       2194032       2585728       2396408
 MEMORY| Slab                   255168        241236        557804        250744
 MEMORY| SReclaimable            53716         48476         53716         51339
 MEMORY| MemLikelyFree        62839848      62409596      62885176      62804922


 *** Fundamental physical constants (SI units) ***

 *** Literature: B. J. Mohr and B. N. Taylor,
 ***             CODATA recommended values of the fundamental physical
 ***             constants: 2006, Web Version 5.1
 ***             http://physics.nist.gov/constants

 Speed of light in vacuum [m/s]                             2.99792458000000E+08
 Magnetic constant or permeability of vacuum [N/A**2]       1.25663706143592E-06
 Electric constant or permittivity of vacuum [F/m]          8.85418781762039E-12
 Planck constant (h) [J*s]                                  6.62606896000000E-34
 Planck constant (h-bar) [J*s]                              1.05457162825177E-34
 Elementary charge [C]                                      1.60217648700000E-19
 Electron mass [kg]                                         9.10938215000000E-31
 Electron g factor [ ]                                     -2.00231930436220E+00
 Proton mass [kg]                                           1.67262163700000E-27
 Fine-structure constant                                    7.29735253760000E-03
 Rydberg constant [1/m]                                     1.09737315685270E+07
 Avogadro constant [1/mol]                                  6.02214179000000E+23
 Boltzmann constant [J/K]                                   1.38065040000000E-23
 Atomic mass unit [kg]                                      1.66053878200000E-27
 Bohr radius [m]                                            5.29177208590000E-11

 *** Conversion factors ***

 [u] -> [a.u.]                                              1.82288848426455E+03
 [Angstrom] -> [Bohr] = [a.u.]                              1.88972613288564E+00
 [a.u.] = [Bohr] -> [Angstrom]                              5.29177208590000E-01
 [a.u.] -> [s]                                              2.41888432650478E-17
 [a.u.] -> [fs]                                             2.41888432650478E-02
 [a.u.] -> [J]                                              4.35974393937059E-18
 [a.u.] -> [N]                                              8.23872205491840E-08
 [a.u.] -> [K]                                              3.15774647902944E+05
 [a.u.] -> [kJ/mol]                                         2.62549961709828E+03
 [a.u.] -> [kcal/mol]                                       6.27509468713739E+02
 [a.u.] -> [Pa]                                             2.94210107994716E+13
 [a.u.] -> [bar]                                            2.94210107994716E+08
 [a.u.] -> [atm]                                            2.90362800883016E+08
 [a.u.] -> [eV]                                             2.72113838565563E+01
 [a.u.] -> [Hz]                                             6.57968392072181E+15
 [a.u.] -> [1/cm] (wave numbers)                            2.19474631370540E+05
 [a.u./Bohr**2] -> [1/cm]                                   5.14048714338585E+03
 

 CELL_TOP| Volume [angstrom^3]:                                     10133.786944
 CELL_TOP| Vector a [angstrom    21.640     0.000     0.000   |a| =    21.640000
 CELL_TOP| Vector b [angstrom     0.000    21.640     0.000   |b| =    21.640000
 CELL_TOP| Vector c [angstrom     0.000     0.000    21.640   |c| =    21.640000
 CELL_TOP| Angle (b,c), alpha [degree]:                                90.000000
 CELL_TOP| Angle (a,c), beta  [degree]:                                90.000000
 CELL_TOP| Angle (a,b), gamma [degree]:                                90.000000
 CELL_TOP| Numerically orthorhombic:                                         YES
 CELL_TOP| Periodicity                                                       XYZ

 CELL| Volume [angstrom^3]:                                         10133.786944
 CELL| Vector a [angstrom]:      21.640     0.000     0.000   |a| =    21.640000
 CELL| Vector b [angstrom]:       0.000    21.640     0.000   |b| =    21.640000
 CELL| Vector c [angstrom]:       0.000     0.000    21.640   |c| =    21.640000
 CELL| Angle (b,c), alpha [degree]:                                    90.000000
 CELL| Angle (a,c), beta  [degree]:                                    90.000000
 CELL| Angle (a,b), gamma [degree]:                                    90.000000
 CELL| Numerically orthorhombic:                                             YES
 CELL| Periodicity                                                           XYZ

 CELL_REF| Volume [angstrom^3]:                                     10133.786944
 CELL_REF| Vector a [angstrom    21.640     0.000     0.000   |a| =    21.640000
 CELL_REF| Vector b [angstrom     0.000    21.640     0.000   |b| =    21.640000
 CELL_REF| Vector c [angstrom     0.000     0.000    21.640   |c| =    21.640000
 CELL_REF| Angle (b,c), alpha [degree]:                                90.000000
 CELL_REF| Angle (a,c), beta  [degree]:                                90.000000
 CELL_REF| Angle (a,b), gamma [degree]:                                90.000000
 CELL_REF| Numerically orthorhombic:                                         YES
 CELL_REF| Periodicity                                                       XYZ

 *******************************************************************************
 *******************************************************************************
 **                                                                           **
 **     #####                         ##              ##                      **
 **    ##   ##            ##          ##              ##                      **
 **   ##     ##                       ##            ######                    **
 **   ##     ##  ##   ##  ##   #####  ##  ##   ####   ##    #####    #####    **
 **   ##     ##  ##   ##  ##  ##      ## ##   ##      ##   ##   ##  ##   ##   **
 **   ##  ## ##  ##   ##  ##  ##      ####     ###    ##   ######   ######    **
 **    ##  ###   ##   ##  ##  ##      ## ##      ##   ##   ##       ##        **
 **     #######   #####   ##   #####  ##  ##  ####    ##    #####   ##        **
 **           ##                                                    ##        **
 **                                                                           **
 **                                                ... make the atoms dance   **
 **                                                                           **
 **            Copyright (C) by CP2K developers group (2000-2022)             **
 **                      J. Chem. Phys. 152, 194103 (2020)                    **
 **                                                                           **
 *******************************************************************************

 *** WARNING in qs_environment.F:914 :: Automatic Generation of RI_AUX ***
 *** basis. This is experimental code.                                 ***


 *** WARNING in qs_environment.F:914 :: Automatic Generation of RI_AUX ***
 *** basis. This is experimental code.                                 ***


 *** WARNING in qs_environment.F:914 :: Automatic Generation of RI_AUX ***
 *** basis. This is experimental code.                                 ***


 *** WARNING in qs_environment.F:914 :: Automatic Generation of RI_AUX ***
 *** basis. This is experimental code.                                 ***


 *** WARNING in qs_environment.F:914 :: Automatic Generation of RI_AUX ***
 *** basis. This is experimental code.                                 ***


 *** WARNING in qs_environment.F:914 :: Automatic Generation of RI_AUX ***
 *** basis. This is experimental code.                                 ***


 DFT| Spin restricted Kohn-Sham (RKS) calculation                            RKS
 DFT| Multiplicity                                                             1
 DFT| Number of spin states                                                    1
 DFT| Charge                                                                   0
 DFT| Self-interaction correction (SIC)                                       NO
 DFT| Cutoffs: density                                              1.000000E-10
 DFT|          gradient                                             1.000000E-10
 DFT|          tau                                                  1.000000E-10
 DFT|          cutoff_smoothing_range                               0.000000E+00
 DFT| XC density smoothing                                                  NONE
 DFT| XC derivatives                                                          PW

 FUNCTIONAL| HYB_GGA_XC_WB97X_D:
 FUNCTIONAL| [1] J.-D. Chai and M. Head-Gordon, Phys. Chem. Chem. Phys. 10, 6615
 FUNCTIONAL|  (2008), doi: 10.1039/B810189B                                     
 FUNCTIONAL| Optional external parameters:                                      
 FUNCTIONAL|  * u^0 coefficient for exchange                                    
 FUNCTIONAL|  * u^1 coefficient for exchange                                    
 FUNCTIONAL|  * u^2 coefficient for exchange                                    
 FUNCTIONAL|  * u^3 coefficient for exchange                                    
 FUNCTIONAL|  * u^4 coefficient for exchange                                    
 FUNCTIONAL|  * u^0 coefficient for same-spin correlation                       
 FUNCTIONAL|  * u^1 coefficient for same-spin correlation                       
 FUNCTIONAL|  * u^2 coefficient for same-spin correlation                       
 FUNCTIONAL|  * u^3 coefficient for same-spin correlation                       
 FUNCTIONAL|  * u^4 coefficient for same-spin correlation                       
 FUNCTIONAL|  * u^0 coefficient for opposite-spin correlation                   
 FUNCTIONAL|  * u^1 coefficient for opposite-spin correlation                   
 FUNCTIONAL|  * u^2 coefficient for opposite-spin correlation                   
 FUNCTIONAL|  * u^3 coefficient for opposite-spin correlation                   
 FUNCTIONAL|  * u^4 coefficient for opposite-spin correlation                   
 FUNCTIONAL|  * fraction of HF exchange                                         
 FUNCTIONAL|  * fraction of short-range exchange                                
 FUNCTIONAL|  * range-separation constant                                       
 FUNCTIONAL| {scale=1.000, spin-unpolarized}                                    


 QS| Method:                                                                 GPW
 QS| Density plane wave grid type                        NON-SPHERICAL FULLSPACE
 QS| Number of grid levels:                                                    4
 QS| Density cutoff [a.u.]:                                                450.0
 QS| Multi grid cutoff [a.u.]: 1) grid level                               450.0
 QS|                           2) grid level                               150.0
 QS|                           3) grid level                                50.0
 QS|                           4) grid level                                16.7
 QS| Grid level progression factor:                                          3.0
 QS| Relative density cutoff [a.u.]:                                        40.0
 QS| Interaction thresholds: eps_pgf_orb:                                1.0E-30
 QS|                         eps_filter_matrix:                          0.0E+00
 QS|                         eps_core_charge:                            1.0E-17
 QS|                         eps_rho_gspace:                             1.0E-15
 QS|                         eps_rho_rspace:                             1.0E-15
 QS|                         eps_gvg_rspace:                             3.2E-08
 QS|                         eps_ppl:                                    1.0E-02
 QS|                         eps_ppnl:                                   3.2E-10


 ATOMIC KIND INFORMATION

  1. Atomic kind: N                                     Number of atoms:     144

     Orbital Basis Set                                                ccGRB-T-q5

       Number of orbital shell sets:                                           3
       Number of orbital shells:                                               9
       Number of primitive Cartesian functions:                                8
       Number of Cartesian basis functions:                                   34
       Number of spherical basis functions:                                   29
       Norm type:                                                              2

       Normalised Cartesian orbitals:

                        Set   Shell   Orbital            Exponent    Coefficient

                          1       1    1s                8.001103      -0.295114
                                                         2.996738      -0.202467
                                                         1.122400       0.234268
                                                         0.420384       0.220057
                                                         0.157451       0.049699

                          1       2    2s                8.001103       0.256303
                                                         2.996738       0.166365
                                                         1.122400      -0.264789
                                                         0.420384      -0.490882
                                                         0.157451       0.303813

                          1       3    3s                8.001103       0.052719
                                                         2.996738      -1.407489
                                                         1.122400       2.701032
                                                         0.420384      -1.465983
                                                         0.157451       0.303633

                          1       4    2px               8.001103      -0.967531
                                                         2.996738      -0.852122
                                                         1.122400      -0.541047
                                                         0.420384      -0.182850
                                                         0.157451      -0.047429
                          1       4    2py               8.001103      -0.967531
                                                         2.996738      -0.852122
                                                         1.122400      -0.541047
                                                         0.420384      -0.182850
                                                         0.157451      -0.047429
                          1       4    2pz               8.001103      -0.967531
                                                         2.996738      -0.852122
                                                         1.122400      -0.541047
                                                         0.420384      -0.182850
                                                         0.157451      -0.047429

                          1       5    3px               8.001103       0.751163
                                                         2.996738       0.947551
                                                         1.122400       0.401479
                                                         0.420384       0.323033
                                                         0.157451      -0.178277
                          1       5    3py               8.001103       0.751163
                                                         2.996738       0.947551
                                                         1.122400       0.401479
                                                         0.420384       0.323033
                                                         0.157451      -0.178277
                          1       5    3pz               8.001103       0.751163
                                                         2.996738       0.947551
                                                         1.122400       0.401479
                                                         0.420384       0.323033
                                                         0.157451      -0.178277

                          1       6    4px               8.001103      -2.061954
                                                         2.996738      -0.379691
                                                         1.122400      -2.240238
                                                         0.420384       1.078272
                                                         0.157451      -0.157582
                          1       6    4py               8.001103      -2.061954
                                                         2.996738      -0.379691
                                                         1.122400      -2.240238
                                                         0.420384       1.078272
                                                         0.157451      -0.157582
                          1       6    4pz               8.001103      -2.061954
                                                         2.996738      -0.379691
                                                         1.122400      -2.240238
                                                         0.420384       1.078272
                                                         0.157451      -0.157582

                          2       1    1dx2              1.654000       3.970513
                                                         0.469000       0.000000
                          2       1    1dxy              1.654000       6.877130
                                                         0.469000       0.000000
                          2       1    1dxz              1.654000       6.877130
                                                         0.469000       0.000000
                          2       1    1dy2              1.654000       3.970513
                                                         0.469000       0.000000
                          2       1    1dyz              1.654000       6.877130
                                                         0.469000       0.000000
                          2       1    1dz2              1.654000       3.970513
                                                         0.469000       0.000000

                          2       2    2dx2              1.654000       0.000000
                                                         0.469000       0.437484
                          2       2    2dxy              1.654000       0.000000
                                                         0.469000       0.757744
                          2       2    2dxz              1.654000       0.000000
                                                         0.469000       0.757744
                          2       2    2dy2              1.654000       0.000000
                                                         0.469000       0.437484
                          2       2    2dyz              1.654000       0.000000
                                                         0.469000       0.757744
                          2       2    2dz2              1.654000       0.000000
                                                         0.469000       0.437484

                          3       1    1fx3              1.093000       1.798249
                          3       1    1fx2y             1.093000       4.021007
                          3       1    1fx2z             1.093000       4.021007
                          3       1    1fxy2             1.093000       4.021007
                          3       1    1fxyz             1.093000       6.964588
                          3       1    1fxz2             1.093000       4.021007
                          3       1    1fy3              1.093000       1.798249
                          3       1    1fy2z             1.093000       4.021007
                          3       1    1fyz2             1.093000       4.021007
                          3       1    1fz3              1.093000       1.798249

     Auxiliary Fit Basis Set                                         admm-tzp-q5

       Number of orbital shell sets:                                           7
       Number of orbital shells:                                               7
       Number of primitive Cartesian functions:                                9
       Number of Cartesian basis functions:                                   18
       Number of spherical basis functions:                                   17
       Norm type:                                                              2

       Normalised Cartesian orbitals:

                        Set   Shell   Orbital            Exponent    Coefficient

                          1       1    1s                6.213162      -0.926209
                                                         0.716616       0.618274

                          2       1    1s                0.318713       0.302315

                          3       1    1s                0.156356       0.177213

                          4       1    1px               6.434402      -5.795363
                                                         1.908664       3.868591
                          4       1    1py               6.434402      -5.795363
                                                         1.908664       3.868591
                          4       1    1pz               6.434402      -5.795363
                                                         1.908664       3.868591

                          5       1    1px               0.596798       0.747695
                          5       1    1py               0.596798       0.747695
                          5       1    1pz               0.596798       0.747695

                          6       1    1px               0.168824       0.154253
                          6       1    1py               0.168824       0.154253
                          6       1    1pz               0.168824       0.154253

                          7       1    1dx2              0.817000       1.155575
                          7       1    1dxy              0.817000       2.001514
                          7       1    1dxz              0.817000       2.001514
                          7       1    1dy2              0.817000       1.155575
                          7       1    1dyz              0.817000       2.001514
                          7       1    1dz2              0.817000       1.155575

     RI Auxiliary Basis Set                                  N-RI-AUX-ccGRB-T-q5

       Number of orbital shell sets:                                           2
       Number of orbital shells:                                              26
       Number of primitive Cartesian functions:                               10
       Number of Cartesian basis functions:                                  130
       Number of spherical basis functions:                                  102
       Norm type:                                                              2

       Normalised Cartesian orbitals:

                        Set   Shell   Orbital            Exponent    Coefficient

                          1       1    1s               10.710519       4.219568
                                                         5.950288       0.000000
                                                         3.305716       0.000000
                                                         1.836509       0.000000
                                                         1.020283       0.000000
                                                         0.566824       0.000000
                                                         0.314902       0.000000

                          1       2    2s               10.710519     -11.431249
                                                         5.950288       7.841100
                                                         3.305716       0.000000
                                                         1.836509       0.000000
                                                         1.020283       0.000000
                                                         0.566824       0.000000
                                                         0.314902       0.000000

                          1       3    3s               10.710519      17.136827
                                                         5.950288     -23.039006
                                                         3.305716       8.707141
                                                         1.836509       0.000000
                                                         1.020283       0.000000
                                                         0.566824       0.000000
                                                         0.314902       0.000000

                          1       4    4s               10.710519     -18.823935
                                                         5.950288      35.425485
                                                         3.305716     -26.250802
                                                         1.836509       7.520157
                                                         1.020283       0.000000
                                                         0.566824       0.000000
                                                         0.314902       0.000000

                          1       5    5s               10.710519      17.359918
                                                         5.950288     -39.314398
                                                         3.305716      40.785869
                                                         1.836509     -22.917554
                                                         1.020283       5.681398
                                                         0.566824       0.000000
                                                         0.314902       0.000000

                          1       6    6s               10.710519     -14.505619
                                                         5.950288      36.423926
                                                         3.305716     -45.472332
                                                         1.836509      35.777425
                                                         1.020283     -17.401807
                                                         0.566824       3.990954
                                                         0.314902       0.000000

                          1       7    7s               10.710519      11.469686
                                                         5.950288     -30.501434
                                                         3.305716      42.219430
                                                         1.836509     -39.976090
                                                         1.020283      27.230124
                                                         0.566824     -12.255050
                                                         0.314902       2.694190

                          1       8    2px              10.710519      27.618701
                                                         5.950288       0.000000
                                                         3.305716       0.000000
                                                         1.836509       0.000000
                                                         1.020283       0.000000
                                                         0.566824       0.000000
                                                         0.314902       0.000000
                          1       8    2py              10.710519      27.618701
                                                         5.950288       0.000000
                                                         3.305716       0.000000
                                                         1.836509       0.000000
                                                         1.020283       0.000000
                                                         0.566824       0.000000
                                                         0.314902       0.000000
                          1       8    2pz              10.710519      27.618701
                                                         5.950288       0.000000
                                                         3.305716       0.000000
                                                         1.836509       0.000000
                                                         1.020283       0.000000
                                                         0.566824       0.000000
                                                         0.314902       0.000000

                          1       9    3px              10.710519     -56.701735
                                                         5.950288      30.250682
                                                         3.305716       0.000000
                                                         1.836509       0.000000
                                                         1.020283       0.000000
                                                         0.566824       0.000000
                                                         0.314902       0.000000
                          1       9    3py              10.710519     -56.701735
                                                         5.950288      30.250682
                                                         3.305716       0.000000
                                                         1.836509       0.000000
                                                         1.020283       0.000000
                                                         0.566824       0.000000
                                                         0.314902       0.000000
                          1       9    3pz              10.710519     -56.701735
                                                         5.950288      30.250682
                                                         3.305716       0.000000
                                                         1.836509       0.000000
                                                         1.020283       0.000000
                                                         0.566824       0.000000
                                                         0.314902       0.000000

                          1      10    4px              10.710519      71.694034
                                                         5.950288     -72.088985
                                                         3.305716      21.966784
                                                         1.836509       0.000000
                                                         1.020283       0.000000
                                                         0.566824       0.000000
                                                         0.314902       0.000000
                          1      10    4py              10.710519      71.694034
                                                         5.950288     -72.088985
                                                         3.305716      21.966784
                                                         1.836509       0.000000
                                                         1.020283       0.000000
                                                         0.566824       0.000000
                                                         0.314902       0.000000
                          1      10    4pz              10.710519      71.694034
                                                         5.950288     -72.088985
                                                         3.305716      21.966784
                                                         1.836509       0.000000
                                                         1.020283       0.000000
                                                         0.566824       0.000000
                                                         0.314902       0.000000

                          1      11    5px              10.710519     -70.417870
                                                         5.950288      95.888448
                                                         3.305716     -55.124377
                                                         1.836509      13.091121
                                                         1.020283       0.000000
                                                         0.566824       0.000000
                                                         0.314902       0.000000
                          1      11    5py              10.710519     -70.417870
                                                         5.950288      95.888448
                                                         3.305716     -55.124377
                                                         1.836509      13.091121
                                                         1.020283       0.000000
                                                         0.566824       0.000000
                                                         0.314902       0.000000
                          1      11    5pz              10.710519     -70.417870
                                                         5.950288      95.888448
                                                         3.305716     -55.124377
                                                         1.836509      13.091121
                                                         1.020283       0.000000
                                                         0.566824       0.000000
                                                         0.314902       0.000000

                          1      12    6px              10.710519      60.183732
                                                         5.950288     -96.171101
                                                         3.305716      74.899548
                                                         1.836509     -33.587902
                                                         1.020283       7.040570
                                                         0.566824       0.000000
                                                         0.314902       0.000000
                          1      12    6py              10.710519      60.183732
                                                         5.950288     -96.171101
                                                         3.305716      74.899548
                                                         1.836509     -33.587902
                                                         1.020283       7.040570
                                                         0.566824       0.000000
                                                         0.314902       0.000000
                          1      12    6pz              10.710519      60.183732
                                                         5.950288     -96.171101
                                                         3.305716      74.899548
                                                         1.836509     -33.587902
                                                         1.020283       7.040570
                                                         0.566824       0.000000
                                                         0.314902       0.000000

                          1      13    7px              10.710519     -47.655016
                                                         5.950288      82.962309
                                                         3.305716     -75.826758
                                                         1.836509      46.084633
                                                         1.020283     -18.253179
                                                         0.566824       3.587008
                                                         0.314902       0.000000
                          1      13    7py              10.710519     -47.655016
                                                         5.950288      82.962309
                                                         3.305716     -75.826758
                                                         1.836509      46.084633
                                                         1.020283     -18.253179
                                                         0.566824       3.587008
                                                         0.314902       0.000000
                          1      13    7pz              10.710519     -47.655016
                                                         5.950288      82.962309
                                                         3.305716     -75.826758
                                                         1.836509      46.084633
                                                         1.020283     -18.253179
                                                         0.566824       3.587008
                                                         0.314902       0.000000

                          1      14    8px              10.710519      36.202207
                                                         5.950288     -65.974967
                                                         3.305716      65.691291
                                                         1.836509     -46.860633
                                                         1.020283      25.162614
                                                         0.566824      -9.347444
                                                         0.314902       1.776008
                          1      14    8py              10.710519      36.202207
                                                         5.950288     -65.974967
                                                         3.305716      65.691291
                                                         1.836509     -46.860633
                                                         1.020283      25.162614
                                                         0.566824      -9.347444
                                                         0.314902       1.776008
                          1      14    8pz              10.710519      36.202207
                                                         5.950288     -65.974967
                                                         3.305716      65.691291
                                                         1.836509     -46.860633
                                                         1.020283      25.162614
                                                         0.566824      -9.347444
                                                         0.314902       1.776008

                          1      15    3dx2             10.710519     104.370527
                                                         5.950288       0.000000
                                                         3.305716       0.000000
                                                         1.836509       0.000000
                                                         1.020283       0.000000
                                                         0.566824       0.000000
                                                         0.314902       0.000000
                          1      15    3dxy             10.710519     180.775056
                                                         5.950288       0.000000
                                                         3.305716       0.000000
                                                         1.836509       0.000000
                                                         1.020283       0.000000
                                                         0.566824       0.000000
                                                         0.314902       0.000000
                          1      15    3dxz             10.710519     180.775056
                                                         5.950288       0.000000
                                                         3.305716       0.000000
                                                         1.836509       0.000000
                                                         1.020283       0.000000
                                                         0.566824       0.000000
                                                         0.314902       0.000000
                          1      15    3dy2             10.710519     104.370527
                                                         5.950288       0.000000
                                                         3.305716       0.000000
                                                         1.836509       0.000000
                                                         1.020283       0.000000
                                                         0.566824       0.000000
                                                         0.314902       0.000000
                          1      15    3dyz             10.710519     180.775056
                                                         5.950288       0.000000
                                                         3.305716       0.000000
                                                         1.836509       0.000000
                                                         1.020283       0.000000
                                                         0.566824       0.000000
                                                         0.314902       0.000000
                          1      15    3dz2             10.710519     104.370527
                                                         5.950288       0.000000
                                                         3.305716       0.000000
                                                         1.836509       0.000000
                                                         1.020283       0.000000
                                                         0.566824       0.000000
                                                         0.314902       0.000000

                          1      16    4dx2             10.710519    -177.120092
                                                         5.950288      73.495743
                                                         3.305716       0.000000
                                                         1.836509       0.000000
                                                         1.020283       0.000000
                                                         0.566824       0.000000
                                                         0.314902       0.000000
                          1      16    4dxy             10.710519    -306.780998
                                                         5.950288     127.298361
                                                         3.305716       0.000000
                                                         1.836509       0.000000
                                                         1.020283       0.000000
                                                         0.566824       0.000000
                                                         0.314902       0.000000
                          1      16    4dxz             10.710519    -306.780998
                                                         5.950288     127.298361
                                                         3.305716       0.000000
                                                         1.836509       0.000000
                                                         1.020283       0.000000
                                                         0.566824       0.000000
                                                         0.314902       0.000000
                          1      16    4dy2             10.710519    -177.120092
                                                         5.950288      73.495743
                                                         3.305716       0.000000
                                                         1.836509       0.000000
                                                         1.020283       0.000000
                                                         0.566824       0.000000
                                                         0.314902       0.000000
                          1      16    4dyz             10.710519    -306.780998
                                                         5.950288     127.298361
                                                         3.305716       0.000000
                                                         1.836509       0.000000
                                                         1.020283       0.000000
                                                         0.566824       0.000000
                                                         0.314902       0.000000
                          1      16    4dz2             10.710519    -177.120092
                                                         5.950288      73.495743
                                                         3.305716       0.000000
                                                         1.836509       0.000000
                                                         1.020283       0.000000
                                                         0.566824       0.000000
                                                         0.314902       0.000000

                          1      17    5dx2             10.710519     196.877314
                                                         5.950288    -148.310694
                                                         3.305716      36.379511
                                                         1.836509       0.000000
                                                         1.020283       0.000000
                                                         0.566824       0.000000
                                                         0.314902       0.000000
                          1      17    5dxy             10.710519     341.001510
                                                         5.950288    -256.881657
                                                         3.305716      63.011161
                                                         1.836509       0.000000
                                                         1.020283       0.000000
                                                         0.566824       0.000000
                                                         0.314902       0.000000
                          1      17    5dxz             10.710519     341.001510
                                                         5.950288    -256.881657
                                                         3.305716      63.011161
                                                         1.836509       0.000000
                                                         1.020283       0.000000
                                                         0.566824       0.000000
                                                         0.314902       0.000000
                          1      17    5dy2             10.710519     196.877314
                                                         5.950288    -148.310694
                                                         3.305716      36.379511
                                                         1.836509       0.000000
                                                         1.020283       0.000000
                                                         0.566824       0.000000
                                                         0.314902       0.000000
                          1      17    5dyz             10.710519     341.001510
                                                         5.950288    -256.881657
                                                         3.305716      63.011161
                                                         1.836509       0.000000
                                                         1.020283       0.000000
                                                         0.566824       0.000000
                                                         0.314902       0.000000
                          1      17    5dz2             10.710519     196.877314
                                                         5.950288    -148.310694
                                                         3.305716      36.379511
                                                         1.836509       0.000000
                                                         1.020283       0.000000
                                                         0.566824       0.000000
                                                         0.314902       0.000000

                          1      18    6dx2             10.710519    -176.930390
                                                         5.950288     175.057432
                                                         3.305716     -78.068320
                                                         1.836509      15.313229
                                                         1.020283       0.000000
                                                         0.566824       0.000000
                                                         0.314902       0.000000
                          1      18    6dxy             10.710519    -306.452424
                                                         5.950288     303.208366
                                                         3.305716    -135.218296
                                                         1.836509      26.523291
                                                         1.020283       0.000000
                                                         0.566824       0.000000
                                                         0.314902       0.000000
                          1      18    6dxz             10.710519    -306.452424
                                                         5.950288     303.208366
                                                         3.305716    -135.218296
                                                         1.836509      26.523291
                                                         1.020283       0.000000
                                                         0.566824       0.000000
                                                         0.314902       0.000000
                          1      18    6dy2             10.710519    -176.930390
                                                         5.950288     175.057432
                                                         3.305716     -78.068320
                                                         1.836509      15.313229
                                                         1.020283       0.000000
                                                         0.566824       0.000000
                                                         0.314902       0.000000
                          1      18    6dyz             10.710519    -306.452424
                                                         5.950288     303.208366
                                                         3.305716    -135.218296
                                                         1.836509      26.523291
                                                         1.020283       0.000000
                                                         0.566824       0.000000
                                                         0.314902       0.000000
                          1      18    6dz2             10.710519    -176.930390
                                                         5.950288     175.057432
                                                         3.305716     -78.068320
                                                         1.836509      15.313229
                                                         1.020283       0.000000
                                                         0.566824       0.000000
                                                         0.314902       0.000000

                          1      19    7dx2             10.710519     142.017933
                                                         5.950288    -161.229608
                                                         3.305716      94.487752
                                                         1.836509     -33.736890
                                                         1.020283       5.945639
                                                         0.566824       0.000000
                                                         0.314902       0.000000
                          1      19    7dxy             10.710519     245.982275
                                                         5.950288    -279.257872
                                                         3.305716     163.657587
                                                         1.836509     -58.434008
                                                         1.020283      10.298149
                                                         0.566824       0.000000
                                                         0.314902       0.000000
                          1      19    7dxz             10.710519     245.982275
                                                         5.950288    -279.257872
                                                         3.305716     163.657587
                                                         1.836509     -58.434008
                                                         1.020283      10.298149
                                                         0.566824       0.000000
                                                         0.314902       0.000000
                          1      19    7dy2             10.710519     142.017933
                                                         5.950288    -161.229608
                                                         3.305716      94.487752
                                                         1.836509     -33.736890
                                                         1.020283       5.945639
                                                         0.566824       0.000000
                                                         0.314902       0.000000
                          1      19    7dyz             10.710519     245.982275
                                                         5.950288    -279.257872
                                                         3.305716     163.657587
                                                         1.836509     -58.434008
                                                         1.020283      10.298149
                                                         0.566824       0.000000
                                                         0.314902       0.000000
                          1      19    7dz2             10.710519     142.017933
                                                         5.950288    -161.229608
                                                         3.305716      94.487752
                                                         1.836509     -33.736890
                                                         1.020283       5.945639
                                                         0.566824       0.000000
                                                         0.314902       0.000000

                          1      20    8dx2             10.710519    -107.375603
                                                         5.950288     130.801827
                                                         3.305716     -87.967104
                                                         1.836509      41.296573
                                                         1.020283     -13.258939
                                                         0.566824       2.216101
                                                         0.314902       0.000000
                          1      20    8dxy             10.710519    -185.980001
                                                         5.950288     226.555409
                                                         3.305716    -152.363493
                                                         1.836509      71.527762
                                                         1.020283     -22.965156
                                                         0.566824       3.838400
                                                         0.314902       0.000000
                          1      20    8dxz             10.710519    -185.980001
                                                         5.950288     226.555409
                                                         3.305716    -152.363493
                                                         1.836509      71.527762
                                                         1.020283     -22.965156
                                                         0.566824       3.838400
                                                         0.314902       0.000000
                          1      20    8dy2             10.710519    -107.375603
                                                         5.950288     130.801827
                                                         3.305716     -87.967104
                                                         1.836509      41.296573
                                                         1.020283     -13.258939
                                                         0.566824       2.216101
                                                         0.314902       0.000000
                          1      20    8dyz             10.710519    -185.980001
                                                         5.950288     226.555409
                                                         3.305716    -152.363493
                                                         1.836509      71.527762
                                                         1.020283     -22.965156
                                                         0.566824       3.838400
                                                         0.314902       0.000000
                          1      20    8dz2             10.710519    -107.375603
                                                         5.950288     130.801827
                                                         3.305716     -87.967104
                                                         1.836509      41.296573
                                                         1.020283     -13.258939
                                                         0.566824       2.216101
                                                         0.314902       0.000000

                          1      21    9dx2             10.710519      78.682441
                                                         5.950288     -99.367743
                                                         3.305716      71.705162
                                                         1.836509     -38.636792
                                                         1.020283      16.316428
                                                         0.566824      -4.970834
                                                         0.314902       0.809099
                          1      21    9dxy             10.710519     136.281985
                                                         5.950288    -172.109979
                                                         3.305716     124.196984
                                                         1.836509     -66.920887
                                                         1.020283      28.260881
                                                         0.566824      -8.609738
                                                         0.314902       1.401400
                          1      21    9dxz             10.710519     136.281985
                                                         5.950288    -172.109979
                                                         3.305716     124.196984
                                                         1.836509     -66.920887
                                                         1.020283      28.260881
                                                         0.566824      -8.609738
                                                         0.314902       1.401400
                          1      21    9dy2             10.710519      78.682441
                                                         5.950288     -99.367743
                                                         3.305716      71.705162
                                                         1.836509     -38.636792
                                                         1.020283      16.316428
                                                         0.566824      -4.970834
                                                         0.314902       0.809099
                          1      21    9dyz             10.710519     136.281985
                                                         5.950288    -172.109979
                                                         3.305716     124.196984
                                                         1.836509     -66.920887
                                                         1.020283      28.260881
                                                         0.566824      -8.609738
                                                         0.314902       1.401400
                          1      21    9dz2             10.710519      78.682441
                                                         5.950288     -99.367743
                                                         3.305716      71.705162
                                                         1.836509     -38.636792
                                                         1.020283      16.316428
                                                         0.566824      -4.970834
                                                         0.314902       0.809099

                          2       1    4fx3              3.032023      17.858811
                                                         1.378192       0.000000
                                                         0.626451       0.000000
                          2       1    4fx2y             3.032023      39.933516
                                                         1.378192       0.000000
                                                         0.626451       0.000000
                          2       1    4fx2z             3.032023      39.933516
                                                         1.378192       0.000000
                                                         0.626451       0.000000
                          2       1    4fxy2             3.032023      39.933516
                                                         1.378192       0.000000
                                                         0.626451       0.000000
                          2       1    4fxyz             3.032023      69.166879
                                                         1.378192       0.000000
                                                         0.626451       0.000000
                          2       1    4fxz2             3.032023      39.933516
                                                         1.378192       0.000000
                                                         0.626451       0.000000
                          2       1    4fy3              3.032023      17.858811
                                                         1.378192       0.000000
                                                         0.626451       0.000000
                          2       1    4fy2z             3.032023      39.933516
                                                         1.378192       0.000000
                                                         0.626451       0.000000
                          2       1    4fyz2             3.032023      39.933516
                                                         1.378192       0.000000
                                                         0.626451       0.000000
                          2       1    4fz3              3.032023      17.858811
                                                         1.378192       0.000000
                                                         0.626451       0.000000

                          2       2    5fx3              3.032023     -18.060600
                                                         1.378192       4.308936
                                                         0.626451       0.000000
                          2       2    5fx2y             3.032023     -40.384729
                                                         1.378192       9.635074
                                                         0.626451       0.000000
                          2       2    5fx2z             3.032023     -40.384729
                                                         1.378192       9.635074
                                                         0.626451       0.000000
                          2       2    5fxy2             3.032023     -40.384729
                                                         1.378192       9.635074
                                                         0.626451       0.000000
                          2       2    5fxyz             3.032023     -69.948403
                                                         1.378192      16.688437
                                                         0.626451       0.000000
                          2       2    5fxz2             3.032023     -40.384729
                                                         1.378192       9.635074
                                                         0.626451       0.000000
                          2       2    5fy3              3.032023     -18.060600
                                                         1.378192       4.308936
                                                         0.626451       0.000000
                          2       2    5fy2z             3.032023     -40.384729
                                                         1.378192       9.635074
                                                         0.626451       0.000000
                          2       2    5fyz2             3.032023     -40.384729
                                                         1.378192       9.635074
                                                         0.626451       0.000000
                          2       2    5fz3              3.032023     -18.060600
                                                         1.378192       4.308936
                                                         0.626451       0.000000

                          2       3    6fx3              3.032023      13.049432
                                                         1.378192      -5.018844
                                                         0.626451       0.821838
                          2       3    6fx2y             3.032023      29.179417
                                                         1.378192     -11.222477
                                                         0.626451       1.837685
                          2       3    6fx2z             3.032023      29.179417
                                                         1.378192     -11.222477
                                                         0.626451       1.837685
                          2       3    6fxy2             3.032023      29.179417
                                                         1.378192     -11.222477
                                                         0.626451       1.837685
                          2       3    6fxyz             3.032023      50.540233
                                                         1.378192     -19.437900
                                                         0.626451       3.182963
                          2       3    6fxz2             3.032023      29.179417
                                                         1.378192     -11.222477
                                                         0.626451       1.837685
                          2       3    6fy3              3.032023      13.049432
                                                         1.378192      -5.018844
                                                         0.626451       0.821838
                          2       3    6fy2z             3.032023      29.179417
                                                         1.378192     -11.222477
                                                         0.626451       1.837685
                          2       3    6fyz2             3.032023      29.179417
                                                         1.378192     -11.222477
                                                         0.626451       1.837685
                          2       3    6fz3              3.032023      13.049432
                                                         1.378192      -5.018844
                                                         0.626451       0.821838

                          2       4    5gx4              3.032023      23.507139
                                                         1.378192       0.000000
                                                         0.626451       0.000000
                          2       4    5gx3y             3.032023      62.194043
                                                         1.378192       0.000000
                                                         0.626451       0.000000
                          2       4    5gx3z             3.032023      62.194043
                                                         1.378192       0.000000
                                                         0.626451       0.000000
                          2       4    5gx2y2            3.032023      80.292164
                                                         1.378192       0.000000
                                                         0.626451       0.000000
                          2       4    5gx2yz            3.032023     139.070107
                                                         1.378192       0.000000
                                                         0.626451       0.000000
                          2       4    5gx2z2            3.032023      80.292164
                                                         1.378192       0.000000
                                                         0.626451       0.000000
                          2       4    5gxy3             3.032023      62.194043
                                                         1.378192       0.000000
                                                         0.626451       0.000000
                          2       4    5gxy2z            3.032023     139.070107
                                                         1.378192       0.000000
                                                         0.626451       0.000000
                          2       4    5gxyz2            3.032023     139.070107
                                                         1.378192       0.000000
                                                         0.626451       0.000000
                          2       4    5gxz3             3.032023      62.194043
                                                         1.378192       0.000000
                                                         0.626451       0.000000
                          2       4    5gy4              3.032023      23.507139
                                                         1.378192       0.000000
                                                         0.626451       0.000000
                          2       4    5gy3z             3.032023      62.194043
                                                         1.378192       0.000000
                                                         0.626451       0.000000
                          2       4    5gy2z2            3.032023      80.292164
                                                         1.378192       0.000000
                                                         0.626451       0.000000
                          2       4    5gyz3             3.032023      62.194043
                                                         1.378192       0.000000
                                                         0.626451       0.000000
                          2       4    5gz4              3.032023      23.507139
                                                         1.378192       0.000000
                                                         0.626451       0.000000

[...]
 flops    14 x     4 x    29         710984747760       0.0%      0.0%    100.0%
 flops    47 x     4 x    47         760294609632       0.0%    100.0%      0.0%
 flops    29 x    47 x    32         930850578432       0.0%    100.0%      0.0%
 flops    32 x    17 x    14        1039817460864       0.0%      0.0%    100.0%
 flops    32 x    32 x    32        1047972020224       0.0%      0.0%    100.0%
 flops    47 x    32 x    32        1143613685760       0.0%    100.0%      0.0%
 flops    47 x    29 x    32        1183820587008       0.0%    100.0%      0.0%
 flops    17 x    17 x    32        1774135136256       0.0%      0.0%    100.0%
 flops    29 x     4 x    47        2374450449416       0.0%    100.0%      0.0%
 flops     4 x    32 x    14        2585337409536       0.0%      0.0%    100.0%
 flops    47 x     4 x    29        2853182653112       0.0%    100.0%      0.0%
 flops    32 x    17 x    47        2909123102528       0.0%    100.0%      0.0%
 flops    29 x    29 x    32        5251808335872       0.0%      0.0%    100.0%
 flops    29 x    32 x    32        5662712659968       0.0%      0.0%    100.0%
 flops     4 x    32 x    47        7225187267584       0.0%    100.0%      0.0%
 flops    29 x     4 x    29        8054186739496       0.0%      0.0%    100.0%
 flops    32 x    17 x    29       14401923683392       0.0%      0.0%    100.0%
 flops    14 x    32 x    14       14918125972736       0.0%      0.0%    100.0%
 flops     4 x    32 x    29       35749356873216       0.0%      0.0%    100.0%
 flops    47 x    32 x    14       64617740005504       0.0%    100.0%      0.0%
 flops    14 x    32 x    47       69990046468608       0.0%    100.0%      0.0%
 flops    29 x    32 x    14      181735472386944       0.0%      0.0%    100.0%
 flops    14 x    32 x    29      201498259604992       0.0%      0.0%    100.0%
 flops    47 x    32 x    47      244362035559744       0.0%    100.0%      0.0%
 flops    32 x    32 x    14      661898322735104       0.0%      0.0%    100.0%
 flops    29 x    32 x    47      820262039893440       0.0%    100.0%      0.0%
 flops    47 x    32 x    29      824964467355456       0.0%    100.0%      0.0%
 flops    32 x    32 x    47     1851809371869184       0.0%    100.0%      0.0%
 flops    29 x    32 x    29     2257491737339520       0.0%      0.0%    100.0%
 flops    32 x    32 x    29     9167580190562304       0.0%      0.0%    100.0%
 flops inhomo. stacks                           0       0.0%      0.0%      0.0%
 flops total                        16.460719E+15       0.0%     23.7%     76.3%
 flops max/rank                     11.756422E+12       0.0%     25.2%     74.8%
 matmuls inhomo. stacks                         0       0.0%      0.0%      0.0%
 matmuls total                       287778688027       0.0%     15.4%     84.6%
 number of processed stacks             477892938       0.0%     26.3%     73.7%
 average stack size                                     0.0     352.6     691.3
 marketing flops                    24.709041E+15
 -------------------------------------------------------------------------------
 # multiplications                           1441
 max memory usage/rank              10.492592E+09
 # max total images/rank                        3
 # max 3D layers                                1
 # MPI messages exchanged               397241856
 MPI messages size (bytes):
  total size                        18.207191E+12
  min size                           0.000000E+00
  max size                         518.992000E+03
  average size                      45.834020E+03
 MPI breakdown and total messages size (bytes):
             size <=      128           203319888                  3095040
       128 < size <=     8192            51408596             398272336032
      8192 < size <=    32768            46494362            1356349809952
     32768 < size <=   131072            59923010            3227046617280
    131072 < size <=  4194304            36096000           13224232174000
   4194304 < size <= 16777216                   0                        0
  16777216 < size                               0                        0
 -------------------------------------------------------------------------------
 -                                                                             -
 -                      DBCSR MESSAGE PASSING PERFORMANCE                      -
 -                                                                             -
 -------------------------------------------------------------------------------
 ROUTINE             CALLS      AVE VOLUME [Bytes]
 MP_Bcast               93                     12.
 MP_Allreduce         5405                     94.
 MP_Alltoall          8890                6119239.
 MP_ISend           524514                  25511.
 MP_IRecv           526324                  25230.
 -------------------------------------------------------------------------------

 -------------------------------------------------------------------------------
 -                                                                             -
 -                                DBM STATISTICS                               -
 -                                                                             -
 -------------------------------------------------------------------------------
    M  x    N  x    K                                          COUNT     PERCENT
 -------------------------------------------------------------------------------

 -------------------------------------------------------------------------------
 -                                                                             -
 -                                GRID STATISTICS                              -
 -                                                                             -
 -------------------------------------------------------------------------------
 LP    KERNEL             BACKEND                              COUNT     PERCENT
 3     integrate ortho    GPU                            14263232700      32.92%
 6     integrate ortho    GPU                              460855628       1.06%
 0     integrate ortho    GPU                              347183856       0.80%
 2     collocate ortho    GPU                              223943820       0.52%
 1     collocate ortho    GPU                              184001182       0.42%
 3     collocate ortho    GPU                              162583109       0.38%
 2     collocate ortho    REF                              100063440       0.23%
 2     integrate ortho    REF                               99923600       0.23%
 0     collocate ortho    GPU                               83730312       0.19%
 4     collocate ortho    GPU                               72242252       0.17%
 4     collocate ortho    REF                               52726496       0.12%
 4     integrate ortho    REF                               52628800       0.12%
 7     integrate ortho    GPU                               40868276       0.09%
 5     collocate ortho    GPU                               19382929       0.04%
 0     collocate ortho    REF                               19206288       0.04%
 0     integrate ortho    REF                               19202400       0.04%
 3     collocate ortho    REF                                6404544       0.01%
 3     integrate ortho    REF                                6400800       0.01%
 5     collocate ortho    REF                                4405500       0.01%
 5     integrate ortho    REF                                4400550       0.01%
 6     collocate ortho    REF                                3559840       0.01%
 6     integrate ortho    REF                                3556000       0.01%
 6     collocate ortho    GPU                                2620160       0.01%
 8     integrate ortho    GPU                                1782176       0.00%
 0     collocate general  REF                                1256448       0.00%
 0     integrate general  REF                                 628224       0.00%
 7     collocate ortho    GPU                                 154698       0.00%
 8     collocate ortho    GPU                                   4248       0.00%
 2     integrate ortho    GPU                            12769614174      29.48%
 4     integrate ortho    GPU                             8224260908      18.98%
 1     integrate ortho    GPU                             3416318914       7.89%
 5     integrate ortho    GPU                             2673664674       6.17%
 -------------------------------------------------------------------------------

 MEMORY| Estimated peak process memory [MiB]                               15191

 -------------------------------------------------------------------------------
 ----                             MULTIGRID INFO                            ----
 -------------------------------------------------------------------------------
 count for grid        1:      114454603          cutoff [a.u.]          450.00
 count for grid        2:      112600173          cutoff [a.u.]          150.00
 count for grid        3:       76918966          cutoff [a.u.]           50.00
 count for grid        4:       34260488          cutoff [a.u.]           16.67
 total gridlevel count  :      338234230

 -------------------------------------------------------------------------------
 -                                                                             -
 -                         MESSAGE PASSING PERFORMANCE                         -
 -                                                                             -
 -------------------------------------------------------------------------------

 ROUTINE             CALLS      AVE VOLUME [Bytes]
 MP_Group               12
 MP_Bcast             4405                2714012.
 MP_Allreduce         9184                  11053.
 MP_Sync              1818
 MP_Alltoall          3405               10510107.
 MP_SendRecv       1059723                2519738.
 MP_ISendRecv       896440                  46953.
 MP_Wait            914244
 MP_comm_split          63
 MP_ISend            53759                 111248.
 MP_IRecv            54043                 110673.
 MP_Send              1044                2513256.
 MP_Recv               138                2087536.
 -------------------------------------------------------------------------------


 -------------------------------------------------------------------------------
 -                                                                             -
 -                           R E F E R E N C E S                               -
 -                                                                             -
 -------------------------------------------------------------------------------
 
 CP2K version 2022.1 (Development Version), the CP2K developers group (2022).
 CP2K is freely available from https://www.cp2k.org/ .

 Kuehne,Thomas D.; Iannuzzi,Marcella; Del Ben,Mauro;
 Rybkin,Vladimir V.; Seewald,Patrick; Stein,Frederick; Laino,Teodoro;
 Khaliullin,Rustam Z.; Schuett,Ole; Schiffmann,Florian; Golze,Dorothea;
 Wilhelm,Jan; Chulkov,Sergey; Bani-Hashemian,Mohammad Hossein;
 Weber,Valery; Borstnik,Urban; Taillefumier,Mathieu;
 Jakobovits,Alice Shoshana; Lazzaro,Alfio; Pabst,Hans; Mueller,Tiziano;
 Schade,Robert; Guidon,Manuel; Andermatt,Samuel; Holmberg,Nico;
 Schenter,Gregory K.; Hehn,Anna; Bussy,Augustin; Belleflamme,Fabian;
 Tabacchi,Gloria; Gloess,Andreas; Lass,Michael; Bethune,Iain;
 Mundy,Christopher J.; Plessl,Christian; Watkins,Matt;
 VandeVondele,Joost; Krack,Matthias; Hutter,Juerg. 
 The Journal of Chemical Physics, 152 (19), (2020). 
 CP2K: An electronic structure and molecular dynamics software package -
 Quickstep: Efficient and accurate electronic structure calculations.
 https://doi.org/10.1063/5.0007045

 Lehtola, S; Steigemann, C; Oliveira, MJT; Marques, MAL. 
 SoftwareX, 7, 1-5 (2018). 
 Recent developments in libxc - A comprehensive library of functionals
 for density functional theory.
 https://doi.org/10.1016/j.softx.2017.11.002

 Stoychev, Georgi L.; Auer, Alexander A.; Neese, Frank. 
 Journal of Chemical Theory and Computation, 13 (2), 554-562 (2017). 
 Automatic Generation of Auxiliary Basis Sets.
 https://doi.org/10.1021/acs.jctc.6b01041

 Schuett, Ole; Messmer, Peter; Hutter, Juerg; VandeVondele, Joost. 
 Electronic Structure Calculations on Graphics Processing Units, John
 Wiley & Sons, Ltd, 173-190 (2016). 
 GPU-Accelerated Sparse Matrix-Matrix Multiplication for
 Linear Scaling Density Functional Theory.
 https://doi.org/10.1002/9781118670712.ch8

 Heinecke, A; Henry, G; Hutchinson, M; Pabst, H. 
 Proceedings of Intl. Supercomputing Conference, 981-991 (2016). 
 LIBXSMM: Accelerating Small Matrix Multiplications
 by Runtime Code Generation.
 https://doi.org/10.1109/SC.2016.83

 Borstnik, U; VandeVondele, J; Weber, V; Hutter, J. 
 PARALLEL COMPUTING, 40 (5-6), 47-58 (2014). 
 Sparse matrix multiplication: The distributed block-compressed sparse
 row library.
 https://doi.org/10.1016/j.parco.2014.03.012

 Hutter, J; Iannuzzi, M; Schiffmann, F; VandeVondele, J. 
 WIREs Comput Mol Sci., 4 (1), 15-25 (2014). 
 CP2K: atomistic simulations of condensed matter systems.
 https://doi.org/10.1002/wcms.1159

 Del Ben, M; Hutter, J; VandeVondele, J. 
 JOURNAL OF CHEMICAL THEORY AND COMPUTATION, 9 (6), 2654-2671 (2013). 
 Electron Correlation in the Condensed Phase from a Resolution of
 Identity Approach Based on the Gaussian and Plane Waves Scheme.
 https://doi.org/10.1021/ct4002202

 Del Ben, M; Hutter, J; VandeVondele, J. 
 JOURNAL OF CHEMICAL THEORY AND COMPUTATION, 8 (11), 4177-4188 (2012). 
 Second-Order Moller-Plesset Perturbation Theory in the Condensed Phase:
 An Efficient and Massively Parallel Gaussian and Plane Waves Approach.
 https://doi.org/10.1021/ct300531w

 Marques, MAL; Oliveira, MJT; Burnus, T. 
 COMPUTER PHYSICS COMMUNICATIONS, 183 (10), 2272-2281 (2012). 
 LIBXC: A library of exchange and correlation functionals for density
 functional theory.
 https://doi.org/10.1016/j.cpc.2012.05.007

 Guidon, M; Hutter, J; VandeVondele, J. 
 JOURNAL OF CHEMICAL THEORY AND COMPUTATION, 6 (8), 2348-2364 (2010). 
 Auxiliary Density Matrix Methods for Hartree-Fock Exchange Calculations.
 https://doi.org/10.1021/ct1002225

 Guidon, M; Hutter, J; VandeVondele, J. 
 JOURNAL OF CHEMICAL THEORY AND COMPUTATION, 5 (11), 3010-3021 (2009). 
 Robust Periodic Hartree-Fock Exchange for Large-Scale Simulations Using
 Gaussian Basis Sets.
 https://doi.org/10.1021/ct900494g

 Guidon, M; Schiffmann, F; Hutter, J; VandeVondele, J. 
 JOURNAL OF CHEMICAL PHYSICS, 128 (21), 214104 (2008). 
 Ab initio molecular dynamics using hybrid density functionals.
 https://doi.org/10.1063/1.2931945

 VandeVondele, J; Hutter, J. 
 JOURNAL OF CHEMICAL PHYSICS, 127 (11), 114105 (2007). 
 Gaussian basis sets for accurate calculations on molecular systems in
 gas and condensed phases.
 https://doi.org/10.1063/1.2770708

 Krack, M. 
 THEORETICAL CHEMISTRY ACCOUNTS, 114 (1-3), 145-152 (2005). 
 Pseudopotentials for H to Kr optimized for gradient-corrected
 exchange-correlation functionals.
 https://doi.org/10.1007/s00214-005-0655-y

 VandeVondele, J; Krack, M; Mohamed, F; Parrinello, M; Chassaing, T;
 Hutter, J. COMPUTER PHYSICS COMMUNICATIONS, 167 (2), 103-128 (2005). 
 QUICKSTEP: Fast and accurate density functional calculations using a
 mixed Gaussian and plane waves approach.
 https://doi.org/10.1016/j.cpc.2004.12.014

 Frigo, M; Johnson, SG. 
 PROCEEDINGS OF THE IEEE, 93 (2), 216-231 (2005). 
 The design and implementation of FFTW3.
 https://doi.org/10.1109/JPROC.2004.840301

 VandeVondele, J; Hutter, J. 
 JOURNAL OF CHEMICAL PHYSICS, 118 (10), 4365-4369 (2003). 
 An efficient orbital transformation method for electronic structure
 calculations.
 https://doi.org/10.1063/1.1543154

 Hartwigsen, C; Goedecker, S; Hutter, J. 
 PHYSICAL REVIEW B, 58 (7), 3641-3662 (1998). 
 Relativistic separable dual-space Gaussian pseudopotentials from H to Rn.
 https://doi.org/10.1103/PhysRevB.58.3641

 Lippert, G; Hutter, J; Parrinello, M. 
 MOLECULAR PHYSICS, 92 (3), 477-487 (1997). 
 A hybrid Gaussian and plane wave density functional scheme.
 https://doi.org/10.1080/002689797170220

 Perdew, JP; Burke, K; Ernzerhof, M. 
 PHYSICAL REVIEW LETTERS, 77 (18), 3865-3868 (1996). 
 Generalized gradient approximation made simple.
 https://doi.org/10.1103/PhysRevLett.77.3865

 Goedecker, S; Teter, M; Hutter, J. 
 PHYSICAL REVIEW B, 54 (3), 1703-1710 (1996). 
 Separable dual-space Gaussian pseudopotentials.
 https://doi.org/10.1103/PhysRevB.54.1703


 -------------------------------------------------------------------------------
 -                                                                             -
 -                                T I M I N G                                  -
 -                                                                             -
 -------------------------------------------------------------------------------
 SUBROUTINE                       CALLS  ASD         SELF TIME        TOTAL TIME
                                MAXIMUM       AVERAGE  MAXIMUM  AVERAGE  MAXIMUM
 CP2K                                 1  1.0    0.422    0.847 9764.835 9765.176
 qs_energies                          1  2.0    0.002    0.058 9761.488 9761.840
 mp2_main                             1  3.0    0.050    0.200 8801.275 8801.602
 mp2_gpw_main                         1  4.0    0.091    0.253 8785.937 8786.271
 mp2_ri_gpw_compute_en                1  5.0    0.540    0.684 8481.149 8505.593
 mp2_ri_gpw_compute_en_RI_loop        1  6.0  326.493  329.256 8448.135 8459.575
 mp2_ri_gpw_compute_en_expansio     345  7.0   41.095   41.563 4232.313 4247.003
 offload_gemm                       345  8.0 4191.218 4205.708 4191.218 4205.708
 mp2_ri_gpw_compute_en_comm         345  7.0  182.205  185.560 3008.214 3039.121
 mp_sendrecv_dm3                1057122  8.0 1861.188 1967.672 1861.188 1967.672
 fill_local_i_aL                1059840  8.0  961.407 1046.661  961.407 1046.661
 scf_env_do_scf                       1  3.0    0.001    0.034  950.421  950.454
 mp2_ri_gpw_compute_en_ener         345  7.0  880.062  894.559  880.062  894.559
 qs_ks_update_qs_env                 60  5.0    0.001    0.001  796.197  796.226
 rebuild_ks_matrix                   58  6.0    0.000    0.000  796.153  796.181
 qs_ks_build_kohn_sham_matrix        58  7.0    0.008    0.060  796.152  796.181
 scf_env_do_scf_inner_loop           58  4.0    0.003    0.070  773.123  773.292
 hfx_ks_matrix                       58  8.0    0.003    0.040  694.546  694.673
 integrate_four_center               58  9.0    6.321    6.985  694.523  694.543
 integrate_four_center_main          58 10.0    1.164    3.544  636.571  646.595
 integrate_four_center_bin         3892 11.0  635.407  643.971  635.407  643.971
 mp2_ri_gpw_compute_in                1  5.0    0.981    1.041  300.334  312.855
 mp2_ri_gpw_compute_in_loop           1  6.0    0.000    0.001  244.205  256.741
 dbcsr_multiply_generic            1441 10.1    0.123    0.142  178.162  242.612
 -------------------------------------------------------------------------------

 The number of warnings for this run is : 7
 
 -------------------------------------------------------------------------------
  **** **** ******  **  PROGRAM ENDED AT                 2022-10-18 11:07:54.128
 ***** ** ***  *** **   PROGRAM RAN ON                                  nid01947
 **    ****   ******    PROGRAM RAN BY                                     ahehn
 ***** **    ** ** **   PROGRAM PROCESS ID                                 22971
  **** **  *******  **  PROGRAM STOPPED IN /scratch/snx3000/ahehn/OKTOBER_2022_M
                                           FU_MOFS/Br_Xe_MOF/wB97X_mfs
