 DBCSR| CPU Multiplication driver                                           XSMM (U)
 DBCSR| Multrec recursion limit                                              512 (U)
 DBCSR| Multiplication stack size                                           1000 (D)
 DBCSR| Maximum elements for images                                    UNLIMITED (U)
 DBCSR| Multiplicative factor virtual images                                   1 (U)
 DBCSR| Use multiplication densification                                       T (D)
 DBCSR| Multiplication size stacks                                             3 (U)
 DBCSR| Use memory pool for CPU allocation                                     F (U)
 DBCSR| Number of 3D layers                                               SINGLE (U)
 DBCSR| Use MPI memory allocation                                              F (U)
 DBCSR| Use RMA algorithm                                                      F (U)
 DBCSR| Use Communication thread                                               T (U)
 DBCSR| Communication thread load                                             87 (D)
 DBCSR| MPI: My process id                                                     0
 DBCSR| MPI: Number of processes                                             144
 DBCSR| OMP: Current number of threads                                         1
 DBCSR| OMP: Max number of threads                                             1
 DBCSR| Split modifier for TAS multiplication algorithm                  1.0E+00 (U)


  **** **** ******  **  PROGRAM STARTED AT               2024-09-13 03:15:00.864
 ***** ** ***  *** **   PROGRAM STARTED ON                              nid02363
 **    ****   ******    PROGRAM STARTED BY                              bsertcan
 ***** **    ** ** **   PROGRAM PROCESS ID                                 20278
  **** **  *******  **  PROGRAM STARTED IN /scratch/snx3000/bsertcan/MFU_sp/rsca
                                           n/cl/xe/rep18

 CP2K| version string:                 CP2K version 2024.2 (Development Version)
 CP2K| source code revision number:                                  git:42d1e6b
 CP2K| cp2kflags: omp libint fftw3 libxc parallel scalapack xsmm                
 CP2K| is freely available from                            https://www.cp2k.org/
 CP2K| Program compiled at                         Tue Sep  3 22:59:39 CEST 2024
 CP2K| Program compiled on                                              daint106
 CP2K| Program compiled for                                                local
 CP2K| Data directory path                             /users/bsertcan/cp2k/data
 CP2K| Input file name                                                 input.inp

 GLOBAL| Force Environment number                                              1
 GLOBAL| Basis set file name                                    BASIS_MOLOPT_UZH
 GLOBAL| Potential file name                                       POTENTIAL_UZH
 GLOBAL| MM Potential file name                                     MM_POTENTIAL
 GLOBAL| Coordinate file name                                         rep_18.xyz
 GLOBAL| Method name                                                        CP2K
 GLOBAL| Project name                                                 Replica_18
 GLOBAL| Run type                                                         ENERGY
 GLOBAL| FFT library                                                       FFTW3
 GLOBAL| Diagonalization library                                       ScaLAPACK
 GLOBAL| DGEMM library                                                      BLAS
 GLOBAL| Orthonormality check for eigenvectors                          DISABLED
 GLOBAL| Matrix multiplication library                                 ScaLAPACK
 GLOBAL| All-to-all communication in single precision                          F
 GLOBAL| FFTs using library dependent lengths                                  F
 GLOBAL| Grid backend                                                       AUTO
 GLOBAL| Global print level                                                  LOW
 GLOBAL| MPI I/O enabled                                                       T
 GLOBAL| Total number of message passing processes                           144
 GLOBAL| Number of threads for this process                                    1
 GLOBAL| This output is from process                                           0
 GLOBAL| Stack size for threads created by OpenMP (OMP_STACKSIZE)             5M
 GLOBAL| CPU model name                Intel(R) Xeon(R) CPU E5-2690 v3 @ 2.60GHz
 GLOBAL| CPUID                                                              1002

 MEMORY| system memory details [Kb]
 MEMORY|                        rank 0           min           max       average
 MEMORY| MemTotal             65740148      65740148      65740148      65740148
 MEMORY| MemFree              60811864      60811516      61234996      60918024
 MEMORY| Buffers                  7880          7596          9268          7907
 MEMORY| Cached                1858560       1573124       1892824       1820626
 MEMORY| Slab                   221572        213712        221572        217547
 MEMORY| SReclaimable            51832         50204         51832         50914
 MEMORY| MemLikelyFree        62730136      62729784      62865920      62797472


 *******************************************************************************
 *******************************************************************************
 **                                                                           **
 **     #####                         ##              ##                      **
 **    ##   ##            ##          ##              ##                      **
 **   ##     ##                       ##            ######                    **
 **   ##     ##  ##   ##  ##   #####  ##  ##   ####   ##    #####    #####    **
 **   ##     ##  ##   ##  ##  ##      ## ##   ##      ##   ##   ##  ##   ##   **
 **   ##  ## ##  ##   ##  ##  ##      ####     ###    ##   ######   ######    **
 **    ##  ###   ##   ##  ##  ##      ## ##      ##   ##   ##       ##        **
 **     #######   #####   ##   #####  ##  ##  ####    ##    #####   ##        **
 **           ##                                                    ##        **
 **                                                                           **
 **                                                ... make the atoms dance   **
 **                                                                           **
 **            Copyright (C) by CP2K developers group (2000-2024)             **
 **                      J. Chem. Phys. 152, 194103 (2020)                    **
 **                                                                           **
 *******************************************************************************


 TOTAL NUMBERS AND MAXIMUM NUMBERS

  Total number of            - Atomic kinds:                                   6
                             - Atoms:                                        409
                             - Shell sets:                                   409
                             - Shells:                                      3617
                             - Primitive Cartesian functions:               2053
                             - Cartesian basis functions:                  13634
                             - Spherical basis functions:                  11621

  Maximum angular momentum of- Orbital basis functions:                        3
                             - Local part of the GTH pseudopotential:          2
                             - Non-local part of the GTH pseudopotential:      4

  AUX_FIT ADMM-Basis: 
  Total number of            - Shell sets:                                  2799
                             - Shells:                                      2799
                             - Primitive Cartesian functions:               3609
                             - Cartesian basis functions:                   7546
                             - Spherical basis functions:                   6985
                               Maximum angular momentum                        3


 SCF PARAMETERS         Density guess:                                   RESTART
                        --------------------------------------------------------
                        max_scf:                                              10
                        max_scf_history:                                       0
                        max_diis:                                              4
                        --------------------------------------------------------
                        eps_scf:                                        1.00E-06
                        eps_scf_history:                                0.00E+00
                        eps_diis:                                       1.00E-01
                        eps_eigval:                                     1.00E-05
                        --------------------------------------------------------
                        level_shift [a.u.]:                             0.000000
                        --------------------------------------------------------
                        Outer loop SCF in use 
                        No variables optimised in outer loop
                        eps_scf                                         1.00E-06
                        max_scf                                               10
                        No outer loop optimization
                        step_size                                       5.00E-01

 Number of electrons:                                                       2056
 Number of occupied orbitals:                                               1028
 Number of molecular orbitals:                                              1028

 Number of orbital functions:                                              11621
 Number of independent orbital functions:                                  11621

 Extrapolation method: initial_guess

 *** WARNING in qs_initial_guess.F:306 :: User requested to restart the   ***
 *** wavefunction from the file named: Replica_18-RESTART.wfn. This file  ***
 *** does not exist. Please check the existence of the file or change     ***
 *** properly the value of the keyword WFN_RESTART_FILE_NAME. Calculation ***
 *** continues using ATOMIC GUESS.                                        ***



 SCF WAVEFUNCTION OPTIMIZATION

  ----------------------------------- OT ---------------------------------------
  Minimizer      : DIIS                : direct inversion
                                         in the iterative subspace
                                         using   7 DIIS vectors
                                         safer DIIS on
  Preconditioner : FULL_SINGLE_INVERSE : inversion of 
                                         H + eS - 2*(Sc)(c^T*H*c+const)(Sc)^T
  Precond_solver : DEFAULT
  stepsize       :    0.08000000                  energy_gap     :    0.08000000
  eps_taylor     :   0.10000E-15                  max_taylor     :             4
  ----------------------------------- OT ---------------------------------------

  Step     Update method      Time    Convergence         Total energy    Change
  ------------------------------------------------------------------------------
     1 OT DIIS     0.80E-01    6.7     0.01136958     -5012.1921979965 -5.01E+03
     2 OT DIIS     0.80E-01    5.3     0.00711079     -5086.6632783451 -7.45E+01
     3 OT DIIS     0.80E-01    5.3     0.00717787     -5121.1499362611 -3.45E+01
     4 OT DIIS     0.80E-01    5.3     0.00601916     -5138.3026662317 -1.72E+01
     5 OT DIIS     0.80E-01    5.3     0.00347654     -5176.9497610548 -3.86E+01
     6 OT DIIS     0.80E-01    5.3     0.00258525     -5189.5707401096 -1.26E+01
     7 OT DIIS     0.80E-01    5.3     0.00196250     -5197.1793931568 -7.61E+00
     8 OT DIIS     0.80E-01    5.3     0.00131988     -5204.0216009838 -6.84E+00
     9 OT DIIS     0.80E-01    5.3     0.00104078     -5206.8710360700 -2.85E+00
    10 OT DIIS     0.80E-01    5.3     0.00076366     -5209.3991401642 -2.53E+00

  Leaving inner SCF loop after reaching    10 steps.


  Electronic density on regular grids:      -2055.9999999676        0.0000000324
  Core density on regular grids:             2055.9999998531       -0.0000001469
  Total charge density on r-space grids:       -0.0000001144
  Total charge density g-space grids:          -0.0000001144

  Overlap energy of the core charge distribution:               0.00004691884599
  Self energy of the core charge distribution:              -9860.83173999830615
  Core Hamiltonian energy:                                   2923.76181583263178
  Hartree energy:                                            2791.29647486030899
  Exchange-correlation energy:                              -1063.62573777767170

  Total energy:                                             -5209.39914016419243

  outer SCF iter =    1 RMS gradient =   0.76E-03 energy =      -5209.3991401642

  ----------------------------------- OT ---------------------------------------
  Minimizer      : DIIS                : direct inversion
                                         in the iterative subspace
                                         using   7 DIIS vectors
                                         safer DIIS on
  Preconditioner : FULL_SINGLE_INVERSE : inversion of 
                                         H + eS - 2*(Sc)(c^T*H*c+const)(Sc)^T
  Precond_solver : DEFAULT
  stepsize       :    0.08000000                  energy_gap     :    0.08000000
  eps_taylor     :   0.10000E-15                  max_taylor     :             4
  ----------------------------------- OT ---------------------------------------

  Step     Update method      Time    Convergence         Total energy    Change
  ------------------------------------------------------------------------------
     1 OT DIIS     0.80E-01   13.4     0.00119846     -5210.8079705902 -1.41E+00
     2 OT DIIS     0.80E-01    5.3     0.00103295     -5212.0740270186 -1.27E+00
     3 OT DIIS     0.80E-01    5.3     0.00067715     -5213.7524189236 -1.68E+00
     4 OT DIIS     0.80E-01    5.3     0.00056193     -5214.2460894722 -4.94E-01
     5 OT DIIS     0.80E-01    5.4     0.00044655     -5214.4378106654 -1.92E-01
     6 OT DIIS     0.80E-01    5.3     0.00031537     -5214.5935927088 -1.56E-01
     7 OT DIIS     0.80E-01    5.4     0.00022488     -5214.6870745574 -9.35E-02
     8 OT DIIS     0.80E-01    5.3     0.00016461     -5214.7233377465 -3.63E-02
     9 OT DIIS     0.80E-01    5.3     0.00010928     -5214.7507274323 -2.74E-02
    10 OT DIIS     0.80E-01    5.3     0.00008437     -5214.7626495648 -1.19E-02

  Leaving inner SCF loop after reaching    10 steps.


  Electronic density on regular grids:      -2055.9999999676        0.0000000324
  Core density on regular grids:             2055.9999998531       -0.0000001469
  Total charge density on r-space grids:       -0.0000001145
  Total charge density g-space grids:          -0.0000001145

  Overlap energy of the core charge distribution:               0.00004691884599
  Self energy of the core charge distribution:              -9860.83173999830615
  Core Hamiltonian energy:                                   2918.51401708126832
  Hartree energy:                                            2791.90060128608911
  Exchange-correlation energy:                              -1064.34557485271239

  Total energy:                                             -5214.76264956481555

  outer SCF iter =    2 RMS gradient =   0.84E-04 energy =      -5214.7626495648

  ----------------------------------- OT ---------------------------------------
  Minimizer      : DIIS                : direct inversion
                                         in the iterative subspace
                                         using   7 DIIS vectors
                                         safer DIIS on
  Preconditioner : FULL_SINGLE_INVERSE : inversion of 
                                         H + eS - 2*(Sc)(c^T*H*c+const)(Sc)^T
  Precond_solver : DEFAULT
  stepsize       :    0.08000000                  energy_gap     :    0.08000000
  eps_taylor     :   0.10000E-15                  max_taylor     :             4
  ----------------------------------- OT ---------------------------------------

  Step     Update method      Time    Convergence         Total energy    Change
  ------------------------------------------------------------------------------
     1 OT DIIS     0.80E-01   13.3     0.00009756     -5214.7659317896 -3.28E-03
     2 OT DIIS     0.80E-01    5.2     0.00007432     -5214.7732598409 -7.33E-03
     3 OT DIIS     0.80E-01    5.2     0.00006151     -5214.7774306494 -4.17E-03
     4 OT DIIS     0.80E-01    5.2     0.00002287     -5214.7821368600 -4.71E-03
     5 OT DIIS     0.80E-01    5.2     0.00001033     -5214.7823864235 -2.50E-04
     6 OT DIIS     0.80E-01    5.2     0.00000676     -5214.7824541078 -6.77E-05
     7 OT DIIS     0.80E-01    5.3     0.00000317     -5214.7824935127 -3.94E-05
     8 OT DIIS     0.80E-01    5.3     0.00000168     -5214.7825022201 -8.71E-06
     9 OT DIIS     0.80E-01    5.3     0.00000099     -5214.7825042867 -2.07E-06

  *** SCF run converged in     9 steps ***


  Electronic density on regular grids:      -2055.9999999676        0.0000000324
  Core density on regular grids:             2055.9999998531       -0.0000001469
  Total charge density on r-space grids:       -0.0000001145
  Total charge density g-space grids:          -0.0000001145

  Overlap energy of the core charge distribution:               0.00004691884599
  Self energy of the core charge distribution:              -9860.83173999830615
  Core Hamiltonian energy:                                   2918.46483673273769
  Hartree energy:                                            2791.92863570905047
  Exchange-correlation energy:                              -1064.34428364899259

  Total energy:                                             -5214.78250428666615

  outer SCF iter =    3 RMS gradient =   0.99E-06 energy =      -5214.7825042867
  outer SCF loop converged in   3 iterations or   29 steps


 ENERGY| Total FORCE_EVAL ( QS ) energy [a.u.]:            -5214.782504286666153

 -------------------------------------------------------------------------------
 -                                                                             -
 -                                DBCSR STATISTICS                             -
 -                                                                             -
 -------------------------------------------------------------------------------
 COUNTER                                    TOTAL       BLAS       SMM       ACC
 flops    14 x     4 x     4               129024       0.0%    100.0%      0.0%     
 flops     4 x     4 x   976               187392       0.0%    100.0%      0.0%     
 flops    41 x     4 x     4               314880       0.0%    100.0%      0.0%     
 flops     4 x     4 x   974               374016       0.0%    100.0%      0.0%     
 flops     4 x     4 x   962               461760       0.0%    100.0%      0.0%     
 flops    29 x     4 x     4              1787328       0.0%    100.0%      0.0%     
 flops    14 x    32 x     4             16515072       0.0%    100.0%      0.0%     
 flops    14 x     4 x    32             16515072       0.0%    100.0%      0.0%     
 flops    32 x     4 x   976             23986176       0.0%    100.0%      0.0%     
 flops     4 x    32 x   976             23986176       0.0%    100.0%      0.0%     
 flops    41 x    32 x     4             40304640       0.0%    100.0%      0.0%     
 flops    41 x     4 x    32             40304640       0.0%    100.0%      0.0%     
 flops    32 x     4 x   974             47874048       0.0%    100.0%      0.0%     
 flops     4 x    32 x   974             47874048       0.0%    100.0%      0.0%     
 flops    32 x     4 x   962             59105280       0.0%    100.0%      0.0%     
 flops     4 x    32 x   962             59105280       0.0%    100.0%      0.0%     
 flops    14 x     4 x    14            108380160       0.0%    100.0%      0.0%     
 flops    68 x    68 x    68            150927360       0.0%    100.0%      0.0%     
 flops    29 x    32 x     4            228777984       0.0%    100.0%      0.0%     
 flops    29 x     4 x    32            228777984       0.0%    100.0%      0.0%     
 flops    41 x    14 x    68            382201344       0.0%    100.0%      0.0%     
 flops    64 x    68 x    68            426147840       0.0%    100.0%      0.0%     
 flops    68 x    64 x    68            426147840       0.0%    100.0%      0.0%     
 flops    68 x    68 x    64            426147840       0.0%    100.0%      0.0%     
 flops    14 x    14 x    68            497081088       0.0%    100.0%      0.0%     
 flops    41 x     4 x    14            507838464       0.0%    100.0%      0.0%     
 flops    14 x     4 x    41            507838464       0.0%    100.0%      0.0%     
 flops    41 x    14 x    64           1079156736       0.0%    100.0%      0.0%     
 flops    64 x    64 x    68           1203240960       0.0%    100.0%      0.0%     
 flops    64 x    68 x    64           1203240960       0.0%    100.0%      0.0%     
 flops    68 x    64 x    64           1203240960       0.0%    100.0%      0.0%     
 flops   963 x    68 x    68           1237909536       0.0%    100.0%      0.0%     
 flops    14 x    14 x    64           1403523072       0.0%    100.0%      0.0%     
 flops    41 x     4 x    41           1541463552       0.0%    100.0%      0.0%     
 flops    14 x     4 x    29           1676513664       0.0%    100.0%      0.0%     
 flops    29 x     4 x    14           1676513664       0.0%    100.0%      0.0%     
 flops    68 x    68 x    96           1704591360       0.0%    100.0%      0.0%     
 flops    68 x    96 x    68           1704591360       0.0%    100.0%      0.0%     
 flops    96 x    68 x    68           1704591360       0.0%    100.0%      0.0%     
 flops    68 x    68 x   976           2039886848       0.0%    100.0%      0.0%     
 flops   976 x    68 x    68           2509241344       0.0%    100.0%      0.0%     
 flops    64 x    64 x    64           3397386240       0.0%    100.0%      0.0%     
 flops   963 x    64 x    68           3495273984       0.0%    100.0%      0.0%     
 flops   963 x    68 x    64           3495273984       0.0%    100.0%      0.0%     
 flops    14 x    41 x    68           3664636416       0.0%    100.0%      0.0%     
 flops    68 x    68 x   974           4071413504       0.0%    100.0%      0.0%     
 flops    41 x    14 x    96           4316626944       0.0%    100.0%      0.0%     
 flops    14 x    32 x    32           4359979008       0.0%    100.0%      0.0%     
 flops    64 x    68 x    96           4812963840       0.0%    100.0%      0.0%     
 flops    64 x    96 x    68           4812963840       0.0%    100.0%      0.0%     
 flops    68 x    64 x    96           4812963840       0.0%    100.0%      0.0%     
 flops    68 x    96 x    64           4812963840       0.0%    100.0%      0.0%     
 flops    96 x    64 x    68           4812963840       0.0%    100.0%      0.0%     
 flops    96 x    68 x    64           4812963840       0.0%    100.0%      0.0%     
 flops   974 x    68 x    68           5008198912       0.0%    100.0%      0.0%     
 flops    68 x    68 x   962           5026565440       0.0%    100.0%      0.0%     
 flops    14 x    14 x    96           5614092288       0.0%    100.0%      0.0%     
 flops    64 x    68 x   976           5759680512       0.0%    100.0%      0.0%     
 flops    68 x    64 x   976           5759680512       0.0%    100.0%      0.0%     
 flops    41 x    41 x    68           6158915040       0.0%    100.0%      0.0%     
 flops   962 x    68 x    68           6183120320       0.0%    100.0%      0.0%     
 flops    14 x    29 x    68           6197885568       0.0%    100.0%      0.0%     
 flops    32 x    32 x   976           6332350464       0.0%    100.0%      0.0%     
 flops   976 x    64 x    68           7084916736       0.0%    100.0%      0.0%     
 flops   976 x    68 x    64           7084916736       0.0%    100.0%      0.0%     
 flops   963 x    68 x   976           8180785152       0.0%    100.0%      0.0%     
 flops    41 x     4 x    29           8200561536       0.0%    100.0%      0.0%     
 flops    29 x     4 x    41           8200561536       0.0%    100.0%      0.0%     
 flops    29 x    14 x    68           8229723936       0.0%    100.0%      0.0%     
 flops   963 x    64 x    64           9869008896       0.0%    100.0%      0.0%     
 flops    14 x    41 x    64          10347208704       0.0%    100.0%      0.0%     
 flops    41 x    32 x    32          10640424960       0.0%    100.0%      0.0%     
 flops    64 x    68 x   974          11495755776       0.0%    100.0%      0.0%     
 flops    68 x    64 x   974          11495755776       0.0%    100.0%      0.0%     
 flops    32 x    32 x   974          12638748672       0.0%    100.0%      0.0%     
 flops    64 x    64 x    96          13589544960       0.0%    100.0%      0.0%     
 flops    64 x    96 x    64          13589544960       0.0%    100.0%      0.0%     
 flops    96 x    64 x    64          13589544960       0.0%    100.0%      0.0%     
 flops   963 x    68 x    96          13981095936       0.0%    100.0%      0.0%     
 flops   963 x    96 x    68          13981095936       0.0%    100.0%      0.0%     
 flops   974 x    64 x    68          14140796928       0.0%    100.0%      0.0%     
 flops   974 x    68 x    64          14140796928       0.0%    100.0%      0.0%     
 flops    64 x    68 x   962          14192655360       0.0%    100.0%      0.0%     
 flops    68 x    64 x   962          14192655360       0.0%    100.0%      0.0%     
 flops    32 x    32 x   962          15603793920       0.0%    100.0%      0.0%     
 flops    64 x    64 x   976          16262627328       0.0%    100.0%      0.0%     
 flops   963 x    68 x   974          16328042496       0.0%    100.0%      0.0%     
 flops   976 x    68 x   976          16582443008       0.0%    100.0%      0.0%     
 flops    41 x    41 x    64          17389877760       0.0%    100.0%      0.0%     
 flops   962 x    64 x    68          17458222080       0.0%    100.0%      0.0%     
 flops   962 x    68 x    64          17458222080       0.0%    100.0%      0.0%     
 flops    14 x    29 x    64          17499912192       0.0%    100.0%      0.0%     
 flops    96 x    96 x    68          19251855360       0.0%    100.0%      0.0%     
 flops    68 x    96 x    96          19251855360       0.0%    100.0%      0.0%     
 flops    96 x    68 x    96          19251855360       0.0%    100.0%      0.0%     
 flops   976 x    64 x    64          20004470784       0.0%    100.0%      0.0%     
 flops   963 x    68 x   962          20158594560       0.0%    100.0%      0.0%     
 flops    68 x    96 x   976          23038722048       0.0%    100.0%      0.0%     
 flops    96 x    68 x   976          23038722048       0.0%    100.0%      0.0%     
 flops   963 x    64 x   976          23098687488       0.0%    100.0%      0.0%     
 flops    29 x    14 x    64          23236867584       0.0%    100.0%      0.0%     
 flops    29 x    41 x    68          27356435904       0.0%    100.0%      0.0%     
 flops    14 x    32 x    14          27745320960       0.0%    100.0%      0.0%     
 flops   976 x    68 x    96          28339666944       0.0%    100.0%      0.0%     
 flops   976 x    96 x    68          28339666944       0.0%    100.0%      0.0%     
 flops    29 x     4 x    29          29341561536       0.0%    100.0%      0.0%     
 flops    64 x    64 x   974          32458604544       0.0%    100.0%      0.0%     
 flops   976 x    68 x   974          33096925184       0.0%    100.0%      0.0%     
 flops   974 x    68 x   976          33096925184       0.0%    100.0%      0.0%     
 flops    41 x    29 x    68          36959713056       0.0%    100.0%      0.0%     
 flops   963 x    64 x    96          39476035584       0.0%    100.0%      0.0%     
 flops   963 x    96 x    64          39476035584       0.0%    100.0%      0.0%     
 flops   974 x    64 x    64          39926956032       0.0%    100.0%      0.0%     
 flops    64 x    64 x   962          40073379840       0.0%    100.0%      0.0%     
 flops   976 x    68 x   962          40861450240       0.0%    100.0%      0.0%     
 flops   962 x    68 x   976          40861450240       0.0%    100.0%      0.0%     
 flops    14 x    41 x    96          41388834816       0.0%    100.0%      0.0%     
 flops    68 x    96 x   974          45983023104       0.0%    100.0%      0.0%     
 flops    96 x    68 x   974          45983023104       0.0%    100.0%      0.0%     
 flops   963 x    64 x   974          46102708224       0.0%    100.0%      0.0%     
 flops   976 x    64 x   976          46821015552       0.0%    100.0%      0.0%     
 flops   962 x    64 x    64          49293803520       0.0%    100.0%      0.0%     
 flops    96 x    96 x    64          54358179840       0.0%    100.0%      0.0%     
 flops    64 x    96 x    96          54358179840       0.0%    100.0%      0.0%     
 flops    96 x    64 x    96          54358179840       0.0%    100.0%      0.0%     
 flops   974 x    96 x    68          56563187712       0.0%    100.0%      0.0%     
 flops   974 x    68 x    96          56563187712       0.0%    100.0%      0.0%     
 flops    68 x    96 x   962          56770621440       0.0%    100.0%      0.0%     
 flops    96 x    68 x   962          56770621440       0.0%    100.0%      0.0%     
 flops   963 x    64 x   962          56918384640       0.0%    100.0%      0.0%     
 flops    29 x    32 x    32          60397387776       0.0%    100.0%      0.0%     
 flops    64 x    96 x   976          65050509312       0.0%    100.0%      0.0%     
 flops    96 x    64 x   976          65050509312       0.0%    100.0%      0.0%     
 flops   974 x    68 x   974          66058207232       0.0%    100.0%      0.0%     
 flops    41 x    41 x    96          69559511040       0.0%    100.0%      0.0%     
 flops   962 x    68 x    96          69832888320       0.0%    100.0%      0.0%     
 flops   962 x    96 x    68          69832888320       0.0%    100.0%      0.0%     
 flops    14 x    29 x    96          69999648768       0.0%    100.0%      0.0%     
 flops    29 x    41 x    64          77241701376       0.0%    100.0%      0.0%     
 flops   976 x    64 x    96          80017883136       0.0%    100.0%      0.0%     
 flops   976 x    96 x    64          80017883136       0.0%    100.0%      0.0%     
 flops   962 x    68 x   974          81555435520       0.0%    100.0%      0.0%     
 flops   974 x    68 x   962          81555435520       0.0%    100.0%      0.0%     
 flops   963 x    96 x   976          92394749952       0.0%    100.0%      0.0%     
 flops    29 x    14 x    96          92947470336       0.0%    100.0%      0.0%     
 flops   976 x    64 x   974          93450141696       0.0%    100.0%      0.0%     
 flops   974 x    64 x   976          93450141696       0.0%    100.0%      0.0%     
 flops   962 x    68 x   962         100688307200       0.0%    100.0%      0.0%     
 flops    41 x    29 x    64         104356836864       0.0%    100.0%      0.0%     
 flops   976 x    64 x   962         115373506560       0.0%    100.0%      0.0%     
 flops   962 x    64 x   976         115373506560       0.0%    100.0%      0.0%     
 flops    29 x    29 x    68         122201949048       0.0%    100.0%      0.0%     
 flops    64 x    96 x   974         129834418176       0.0%    100.0%      0.0%     
 flops    96 x    64 x   974         129834418176       0.0%    100.0%      0.0%     
 flops    41 x    32 x    14         130006646784       0.0%    100.0%      0.0%     
 flops    14 x    32 x    41         130006646784       0.0%    100.0%      0.0%     
 flops   963 x    96 x    96         157904142336       0.0%    100.0%      0.0%     
 flops   974 x    96 x    64         159707824128       0.0%    100.0%      0.0%     
 flops   974 x    64 x    96         159707824128       0.0%    100.0%      0.0%     
 flops    64 x    96 x   962         160293519360       0.0%    100.0%      0.0%     
 flops    96 x    64 x   962         160293519360       0.0%    100.0%      0.0%     
 flops   963 x    96 x   974         184410832896       0.0%    100.0%      0.0%     
 flops   974 x    64 x   974         186517291008       0.0%    100.0%      0.0%     
 flops   976 x    96 x   976         187284062208       0.0%    100.0%      0.0%     
 flops   962 x    64 x    96         197175214080       0.0%    100.0%      0.0%     
 flops   962 x    96 x    64         197175214080       0.0%    100.0%      0.0%     
 flops    96 x    96 x    96         217432719360       0.0%    100.0%      0.0%     
 flops   963 x    96 x   962         227673538560       0.0%    100.0%      0.0%     
 flops   962 x    64 x   974         230274170880       0.0%    100.0%      0.0%     
 flops   974 x    64 x   962         230274170880       0.0%    100.0%      0.0%     
 flops    96 x    96 x   976         260202037248       0.0%    100.0%      0.0%     
 flops   962 x    64 x   962         284296396800       0.0%    100.0%      0.0%     
 flops    29 x    41 x    96         308966805504       0.0%    100.0%      0.0%     
 flops   976 x    96 x    96         320071532544       0.0%    100.0%      0.0%     
 flops    29 x    29 x    64         345040797312       0.0%    100.0%      0.0%     
 flops   974 x    96 x   976         373800566784       0.0%    100.0%      0.0%     
 flops   976 x    96 x   974         373800566784       0.0%    100.0%      0.0%     
 flops    41 x    32 x    41         394614669312       0.0%    100.0%      0.0%     
 flops    41 x    29 x    96         417427347456       0.0%    100.0%      0.0%     
 flops    14 x    32 x    29         429187497984       0.0%    100.0%      0.0%     
 flops    29 x    32 x    14         429187497984       0.0%    100.0%      0.0%     
 flops   976 x    96 x   962         461494026240       0.0%    100.0%      0.0%     
 flops   962 x    96 x   976         461494026240       0.0%    100.0%      0.0%     
 flops    96 x    96 x   974         519337672704       0.0%    100.0%      0.0%     
 flops   974 x    96 x    96         638831296512       0.0%    100.0%      0.0%     
 flops    96 x    96 x   962         641174077440       0.0%    100.0%      0.0%     
 flops   974 x    96 x   974         746069164032       0.0%    100.0%      0.0%     
 flops   962 x    96 x    96         788700856320       0.0%    100.0%      0.0%     
 flops   974 x    96 x   962         921096683520       0.0%    100.0%      0.0%     
 flops   962 x    96 x   974         921096683520       0.0%    100.0%      0.0%     
 flops   962 x    96 x   962        1137185587200       0.0%    100.0%      0.0%     
 flops    29 x    29 x    96        1380163189248       0.0%    100.0%      0.0%     
 flops    41 x    32 x    29        2099343753216       0.0%    100.0%      0.0%     
 flops    29 x    32 x    41        2099343753216       0.0%    100.0%      0.0%     
 flops    29 x    32 x    29        7511439753216       0.0%    100.0%      0.0%     
 flops inhomo. stacks                982684428800     100.0%      0.0%      0.0%
 flops total                        32.225563E+12       3.0%     97.0%      0.0%
 flops max/rank                    257.680105E+09       3.1%     96.9%      0.0%
 matmuls inhomo. stacks                     22563     100.0%      0.0%      0.0%
 matmuls total                          272447838       0.0%    100.0%      0.0%
 number of processed stacks               2699061       0.8%     99.2%      0.0%
 average stack size                                     1.1     101.7       0.0
 marketing flops                    45.044900E+12
 -------------------------------------------------------------------------------
 # multiplications                            641
 max memory usage/rank             600.055808E+06
 # max total images/rank                        1
 # max 3D layers                                1
 # MPI messages exchanged                 2030688
 MPI messages size (bytes):
  total size                         1.582566E+12
  min size                           0.000000E+00
  max size                           7.620608E+06
  average size                     779.325250E+03
 MPI breakdown and total messages size (bytes):
             size <=      128               13860                        0
       128 < size <=     8192                   0                        0
      8192 < size <=    32768               61974               2026442880
     32768 < size <=   131072              923670              55826341120
    131072 < size <=  4194304              866448             575051332768
   4194304 < size <= 16777216              164736             949667715392
  16777216 < size                               0                        0
 -------------------------------------------------------------------------------
 -                                                                             -
 -                      DBCSR MESSAGE PASSING PERFORMANCE                      -
 -                                                                             -
 -------------------------------------------------------------------------------
 ROUTINE             CALLS      AVE VOLUME [Bytes]
 MP_Bcast              196                     12.
 MP_Allreduce         3785                     30.
 MP_Alltoall          2344                 153065.
 MP_ISend            30756                 368528.
 MP_IRecv            30756                 366192.
 -------------------------------------------------------------------------------

 -------------------------------------------------------------------------------
 -                                                                             -
 -                                DBM STATISTICS                               -
 -                                                                             -
 -------------------------------------------------------------------------------
    M  x    N  x    K                                          COUNT     PERCENT
 -------------------------------------------------------------------------------

 -------------------------------------------------------------------------------
 -                                                                             -
 -                                GRID STATISTICS                              -
 -                                                                             -
 -------------------------------------------------------------------------------
 LP    KERNEL             BACKEND                              COUNT     PERCENT
 6     collocate ortho    CPU                                8006670      21.56%
 8     collocate ortho    CPU                                7914510      21.31%
 6     integrate ortho    CPU                                7739781      20.84%
 8     integrate ortho    CPU                                7650693      20.60%
 5     collocate ortho    CPU                                1419840       3.82%
 7     collocate ortho    CPU                                1419840       3.82%
 5     integrate ortho    CPU                                1372512       3.70%
 7     integrate ortho    CPU                                1372512       3.70%
 4     collocate ortho    CPU                                  92160       0.25%
 4     integrate ortho    CPU                                  89088       0.24%
 0     collocate general  CPU                                  58896       0.16%
 -------------------------------------------------------------------------------

 MEMORY| Estimated peak process memory [MiB]                                 573

 -------------------------------------------------------------------------------
 -                                                                             -
 -                         MESSAGE PASSING PERFORMANCE                         -
 -                                                                             -
 -------------------------------------------------------------------------------

 ROUTINE             CALLS      AVE VOLUME [Bytes]
 MP_Group                4
 MP_Bcast             3613                4143952.
 MP_Allreduce         8036                   2612.
 MP_Sync                27
 MP_Alltoall          1016               17128823.
 MP_SendRecv         17160                  98624.
 MP_ISendRecv        16588                  98624.
 MP_Wait             27490
 MP_comm_split          23
 MP_ISend             9954                 576307.
 MP_IRecv             9954                 576338.
 -------------------------------------------------------------------------------


 -------------------------------------------------------------------------------
 -                                                                             -
 -                           R E F E R E N C E S                               -
 -                                                                             -
 -------------------------------------------------------------------------------
 
 CP2K version 2024.2 (Development Version), the CP2K developers group (2024).
 CP2K is freely available from https://www.cp2k.org/ .
 
 T. D. Kuehne, M. Iannuzzi, M. Del Ben, V. V. Rybkin, P. Seewald, F. Stein, T. 
 Laino, R. Z. Khaliullin, O. Schuett, F. Schiffmann, D. Golze, J. Wilhelm, S. 
 Chulkov, M. H. Bani-Hashemian, V. Weber, U. Borstnik, M. Taillefumier, A. S. 
 Jakobovits, A. Lazzaro, H. Pabst, T. Mueller, R. Schade, M. Guidon, S. 
 Andermatt, N. Holmberg, G. K. Schenter, A. Hehn, A. Bussy, F. Belleflamme, G. 
 Tabacchi, A. Gloess, M. Lass, I. Bethune, C. J. Mundy, C. Plessl, M. Watkins, 
 J. VandeVondele, M. Krack, J. Hutter.
 J. Chem. Phys. 152, 194103 (2020).
 CP2K: An electronic structure and molecular dynamics software package - 
 Quickstep: Efficient and accurate electronic structure calculations.
 https://doi.org/10.1063/5.0007045

 S. Lehtola, C. Steigemann, M. J. T. Oliveira, M. A. L. Marques.
 SoftwareX 7, 1-5 (2018).
 Recent developments in libxc - A comprehensive library of functionals for 
 density functional theory.
 https://doi.org/10.1016/j.softx.2017.11.002

 O. Schuett, P. Messmer, J. Hutter, J. VandeVondele.
 Electronic Structure Calculations on Graphics Processing Units, 173-190 (2016).
 GPU-Accelerated Sparse Matrix-Matrix Multiplication for Linear Scaling Density 
 Functional Theory.
 https://doi.org/10.1002/9781118670712.ch8

 A. Heinecke, G. Henry, M. Hutchinson, H. Pabst.
 Proceedings of Intl. Supercomputing Conference, 981-991 (2016).
 LIBXSMM: Accelerating Small Matrix Multiplications by Runtime Code Generation.
 https://doi.org/10.1109/SC.2016.83

 J. Hutter, M. Iannuzzi, F. Schiffmann, J. VandeVondele.
 WIREs Comput Mol Sci. 4, 15-25 (2014).
 CP2K: atomistic simulations of condensed matter systems.
 https://doi.org/10.1002/wcms.1159

 U. Borstnik, J. VandeVondele, V. Weber, J. Hutter.
 Parallel Comput. 40, 47-58 (2014).
 Sparse matrix multiplication: The distributed block-compressed sparse row 
 library.
 https://doi.org/10.1016/j.parco.2014.03.012

 M. A. L. Marques, M. J. T. Oliveira, T. Burnus.
 Comput. Phys. Commun. 183, 2272-2281 (2012).
 LIBXC: A library of exchange and correlation functionals for density functional 
 theory.
 https://doi.org/10.1016/j.cpc.2012.05.007

 J. VandeVondele, J. Hutter.
 J. Chem. Phys. 127, 114105 (2007).
 Gaussian basis sets for accurate calculations on molecular systems in gas and 
 condensed phases.
 https://doi.org/10.1063/1.2770708

 J. VandeVondele, M. Krack, F. Mohamed, M. Parrinello, T. Chassaing, J. Hutter.
 Comput. Phys. Commun. 167, 103-128 (2005).
 QUICKSTEP: Fast and accurate density functional calculations using a mixed 
 Gaussian and plane waves approach.
 https://doi.org/10.1016/j.cpc.2004.12.014

 M. Krack.
 Theor. Chem. Acc. 114, 145-152 (2005).
 Pseudopotentials for H to Kr optimized for gradient-corrected 
 exchange-correlation functionals.
 https://doi.org/10.1007/s00214-005-0655-y

 M. Frigo, S. G. Johnson.
 Proc. IEEE 93, 216-231 (2005).
 The design and implementation of FFTW3.
 https://doi.org/10.1109/JPROC.2004.840301

 J. VandeVondele, J. Hutter.
 J. Chem. Phys. 118, 4365-4369 (2003).
 An efficient orbital transformation method for electronic structure 
 calculations.
 https://doi.org/10.1063/1.1543154

 C. Hartwigsen, S. Goedecker, J. Hutter.
 Phys. Rev. B 58, 3641-3662 (1998).
 Relativistic separable dual-space Gaussian pseudopotentials from H to Rn.
 https://doi.org/10.1103/PhysRevB.58.3641

 G. Lippert, J. Hutter, M. Parrinello.
 Mol. Phys. 92, 477-487 (1997).
 A hybrid Gaussian and plane wave density functional scheme.
 https://doi.org/10.1080/002689797170220

 S. Goedecker, M. Teter, J. Hutter.
 Phys. Rev. B 54, 1703-1710 (1996).
 Separable dual-space Gaussian pseudopotentials.
 https://doi.org/10.1103/PhysRevB.54.1703


 -------------------------------------------------------------------------------
 -                                                                             -
 -                                T I M I N G                                  -
 -                                                                             -
 -------------------------------------------------------------------------------
 SUBROUTINE                       CALLS  ASD         SELF TIME        TOTAL TIME
                                MAXIMUM       AVERAGE  MAXIMUM  AVERAGE  MAXIMUM
 CP2K                                 1  1.0    0.016    0.037  166.363  166.364
 qs_energies                          1  2.0    0.009    0.013  164.656  164.660
 scf_env_do_scf                       1  3.0    0.000    0.000  161.902  161.903
 scf_env_do_scf_inner_loop           29  4.0    0.001    0.033  144.338  144.602
 qs_ks_update_qs_env                 32  5.0    0.000    0.000   90.812   90.958
 rebuild_ks_matrix                   29  6.0    0.000    0.000   90.718   90.862
 qs_ks_build_kohn_sham_matrix        29  7.0    0.004    0.005   90.718   90.862
 sum_up_and_integrate                29  8.0    0.001    0.002   46.174   46.179
 qs_rho_update_rho_low               30  5.0    0.000    0.000   45.957   45.994
 integrate_v_rspace                  58  9.0    0.002    0.003   45.987   45.993
 calculate_rho_elec                  60  6.0    0.135    0.138   45.956   45.993
 fft_wrap_pw1pw2                    765  9.9    0.016    0.023   37.007   38.112
 qs_vxc_create                       29  8.0    0.001    0.001   36.730   36.745
 xc_vxc_pw_create                    29  9.0    0.266    0.318   36.729   36.745
 fft_wrap_pw1pw2_500                411 11.3    1.568    1.604   34.993   36.138
 fft3d_ps                           765 11.9   13.490   13.954   28.485   29.760
 grid_integrate_task_list            58 10.0   27.788   29.159   27.788   29.159
 grid_collocate_task_list            60  7.0   24.383   25.742   24.383   25.742
 xc_rho_set_and_dset_create          29 10.0    0.274    0.320   24.387   24.757
 density_rs2pw                       60  7.0    0.004    0.005   20.901   22.482
 dbcsr_multiply_generic             641 10.0    0.035    0.038   19.057   19.380
 qs_scf_new_mos                      29  5.0    0.000    0.000   18.481   18.778
 qs_scf_loop_do_ot                   29  6.0    0.000    0.000   18.480   18.778
 xc_pw_derive                       174 11.0    0.004    0.004   17.286   18.448
 ot_scf_mini                         29  7.0    0.001    0.001   17.195   17.458
 init_scf_loop                        3  4.0    0.000    0.000   17.430   17.441
 potential_pw2rs                     58 10.0    0.011    0.012   16.228   16.253
 multiply_cannon                    641 11.0    0.050    0.060   15.180   15.992
 xc_functional_eval                  58 11.0    0.001    0.001   15.408   15.733
 libxc_lda_eval                      58 12.0   15.407   15.732   15.408   15.732
 multiply_cannon_loop               641 12.0    0.067    0.071   14.185   14.986
 xc_pw_divergence                    29 10.0    0.002    0.002   11.827   12.902
 mp_alltoall_z22v                   765 13.9   10.670   11.703   10.670   11.703
 transfer_rs2pw                     241  8.0    0.004    0.005    9.216   10.823
 multiply_cannon_multrec           7692 13.0    9.203   10.479    9.207   10.483
 transfer_pw2rs                     232 11.0    0.003    0.005    9.980    9.992
 mp_waitall_1                     89328 13.9    7.079    9.165    7.079    9.165
 ot_mini                             29  8.0    0.000    0.000    8.767    9.063
 yz_to_x                            326 12.6    2.036    2.315    7.622    8.780
 mp_waitany                        9954 11.5    6.566    8.529    6.566    8.529
 x_to_yz                            321 13.4    2.202    2.262    7.281    7.446
 prepare_preconditioner               3  5.0    0.000    0.000    7.205    7.240
 make_preconditioner                  3  6.0    0.000    0.000    7.205    7.240
 transfer_rs2pw_500                  61  9.0    2.219    2.593    5.498    7.140
 transfer_pw2rs_500                  58 12.0    2.416    2.804    5.925    6.435
 qs_ot_get_p                         32  7.8    0.000    0.000    4.780    5.141
 qs_ot_get_derivative                29  9.0    0.000    0.000    4.384    4.655
 apply_preconditioner_dbcsr          32 10.0    0.000    0.000    4.467    4.623
 apply_single                        32 11.0    0.000    0.000    4.467    4.623
 make_full_inverse_cholesky           3  7.0    0.000    0.000    4.443    4.490
 ot_diis_step                        29  9.0    0.002    0.002    4.357    4.357
 multiply_cannon_metrocomm3        7692 13.0    0.022    0.025    0.974    4.262
 multiply_cannon_metrocomm1        7692 13.0    0.028    0.031    3.150    4.211
 mp_alltoall_d11v                   610 11.6    2.575    4.186    2.575    4.186
 qs_ot_p2m_diag                      23  9.0    0.014    0.018    3.690    3.697
 rs_gather_matrices                  58 10.0    0.125    0.148    1.968    3.653
 cp_dbcsr_syevd                      23 10.0    0.001    0.001    3.549    3.550
 cp_fm_syevd                         23 11.0    0.000    0.000    3.480    3.481
 cp_fm_redistribute_end              23 12.0    1.738    3.463    1.740    3.464
 cp_fm_syevd_base                    23 12.0    1.723    3.449    1.723    3.449
 -------------------------------------------------------------------------------

 The number of warnings for this run is : 1
 
 -------------------------------------------------------------------------------
  **** **** ******  **  PROGRAM ENDED AT                 2024-09-13 03:17:47.791
 ***** ** ***  *** **   PROGRAM RAN ON                                  nid02363
 **    ****   ******    PROGRAM RAN BY                                  bsertcan
 ***** **    ** ** **   PROGRAM PROCESS ID                                 20278
  **** **  *******  **  PROGRAM STOPPED IN /scratch/snx3000/bsertcan/MFU_sp/rsca
                                           n/cl/xe/rep18
