     409
 i =      56, E =    -5133.8545155817
  N         2.9522134250        5.2965675543       15.9547549537
  C         1.6263301098        5.5359643003       16.2204345147
  N        13.7687421700        5.0729380641        5.0980648475
  C        12.4487915210        5.3256196981        5.3813695310
  N        19.5507771236       17.5320557385       15.9757581249
  C        20.8692478522       17.2957106902       16.2708374747
  N         8.7627159652       17.6061751187        5.2467448658
  C        10.0775367309       17.3002595958        5.4934939463
  N        19.6295267184        5.1561061731        6.7284388564
  C        20.9460843826        5.4604534560        6.4883454635
  N         8.7962217489        5.2235465007       17.6402316628
  C        10.1124811788        5.4306954112       17.3114824708
  N         2.8797180762       17.5958477515        6.7830163191
  C         1.5666406236       17.3038139112        6.5091472169
  N        13.7106436603       17.5848872490       17.5935705862
  C        12.3858799489       17.3330115822       17.3395003457
  N        15.9428646703        2.9575709633        5.1243597399
  C        16.1975177092        1.6414112024        5.4125014013
  N        15.8016685716       13.8314268268       16.0121163800
  C        16.0781179741       12.5110213904       16.2686727109
  N        15.8875922955       19.7049216229       17.5557503540
  C        16.1613517306       21.0187479237       17.2725073830
  N        15.8697819200        8.8125659520        6.6674599679
  C        16.1396997452       10.1342311686        6.4137559623
  N         6.5879323253       19.7612682128        5.2314307066
  C         6.3144603179       21.0790843479        5.4943238750
  N         6.5647674049        8.9989990504       16.0714280965
  C         6.2777713449       10.3162468449       16.3307657409
  N         6.6285913062        3.1304459650       17.5556798551
  C         6.3476457209        1.8159988615       17.2892542317
  N         6.5620769631       13.8889636706        6.8256288423
  C         6.2955000702       12.5741065703        6.5350699189
  N         5.0665863425       16.0561313755        3.0857652041
  C         5.3312700897       16.3386555812        1.7708532982
  N         5.1975809136        5.4014922615       13.8623356030
  C         5.4788817634        5.6569994755       12.5438352066
  N        17.4280282713       15.9725798278       19.7031434025
  C        17.1657650810       16.2374447656       21.0241706024
  N        17.4665287067        5.1073384154        8.8501237701
  C        17.2020836978        5.3926754269       10.1656008187
  N         5.0178711575        6.7838615969       19.7293339254
  C         5.2774011197        6.4994174335       21.0451689542
  N         5.0323782643       17.6284911738        8.9466632591
  C         5.3062829617       17.3727680467       10.2667703059
  N        17.4869047038        6.6824855711        2.9823972495
  C        17.2138910602        6.4231904488        1.6630261944
  N        17.3756190581       17.5236096949       13.8427751686
  C        17.1041463397       17.2446323882       12.5282397219
  N         5.0762137148        3.0942638124        6.7916603894
  C         5.3212068734        1.7703054338        6.5184326501
  N         5.0023950464       13.9537296441       17.6369780237
  C         5.2604306741       12.6353425464       17.3572137435
  N        17.4277836862       19.6445660480        6.7496708565
  C        17.1763392734       20.9620386491        6.4627817010
  N        17.4132389260        8.8719487924       17.5022619783
  C        17.1235799096       10.1877148837       17.2467718933
  N         5.0356928189       19.8154095958       16.0465112537
  C         5.3199781524       21.1347307464       16.2966473646
  N         5.0712535263        8.9481631710        5.1456519235
  C         5.3168582126       10.2626794220        5.4546558600
  N        17.4700433860        3.0053028209       15.9660554677
  C        17.1897759248        1.6889159178       16.2369133952
  N        17.4414057104       13.7877817658        5.1801472463
  C        17.1675009550       12.4673406512        5.4342234463
  N         2.8722578432       16.1079210198       17.6286092950
  C         1.5545224347       16.3469435768       17.3340714149
  N        13.7061434262       15.9201775102        6.7143223587
  C        12.3904484134       16.2169483093        6.4596033602
  N        19.5925228624       15.9565021158        5.1982384375
  C        20.9055083910       16.2460022882        5.4755355062
  N         8.7186865485       16.0905192515       16.0976805216
  C        10.0414353084       16.3448405162       16.3554740661
  N        19.6004414957        6.7461001964       17.5067067982
  C        20.9224265540        6.4984323822       17.2383183691
  N         8.8222812788        6.6445615376        6.6813841983
  C        10.1348624565        6.3410145140        6.4221890207
  N         2.9337325655        6.8088530152        5.2426216982
  C         1.6201123679        6.5196555344        5.5073767461
  N        13.7426636634        6.6177159559       15.9089738790
  C        12.4286192269        6.3498441857       16.1978342685
  N        15.9178865845        5.1551637464       19.6650247950
  C        16.1950776853        5.4190145854       20.9808755673
  N        15.8342682383       15.9357076893        8.8903984300
  C        16.0927326973       16.2158056380       10.2097934884
  N        15.8859713782       17.5016349869        3.0326969407
  C        16.1584819341       17.2413399766        1.7139758808
  N        15.9278162471        6.7172210850       13.7957730118
  C        16.1975720344        6.4376552662       12.4796096800
  N         6.5603490078        5.1849234321        3.0286778394
  C         6.2851072559        5.4615461254        1.7157422335
  N         6.5843319299       16.1157116527       13.9182120244
  C         6.3215812630       16.3799492890       12.5978737443
  N         6.5906702730       17.6653064754       19.7779777761
  C         6.3326676153       17.3806282268       21.0953627495
  N         6.7931710310        6.8749986863        8.8852946481
  C         6.5149841502        6.6233051160       10.2063395142
  N        19.5649112530       17.4998155343        6.7659124425
  C        20.8865368419       17.2543833391        6.4983116395
  N         8.7484790164       17.6634835480       17.6338941372
  C        10.0622816221       17.3708613964       17.3605580881
  N         2.9505145053        5.2795299690        6.8230726022
  C         1.6284858888        5.5181541659        6.5370344862
  N        13.7550353801        5.1365800018       17.5353106007
  C        12.4346778216        5.3885173580       17.2625893838
  N         2.8659765692       17.6563713066       16.0651081810
  C         1.5495789479       17.3583777198       16.3142438382
  N        13.7192112236       17.5026847937        5.1859114172
  C        12.3991580756       17.2510090164        5.4631228465
  N        19.6278329934        5.1910738761       15.9504388685
  C        20.9420196285        5.4864870162       16.2190771568
  N         8.7983649952        5.1339231016        5.0857121754
  C        10.1218913715        5.3566311269        5.3771947798
  N         6.5818150419       19.8200477643       17.6138778878
  C         6.3260480606       21.1363568803       17.3222220958
  N         6.6168297764        8.9310949606        6.7082590129
  C         6.3241441393       10.2520362470        6.4780992178
  N         6.5919540454        3.0694966819        5.1972668255
  C         6.3155423637        1.7578247218        5.4818275069
  N         6.5339964149       13.9542168955       16.0591580710
  C         6.2589945724       12.6376066028       16.3265783499
  N        15.9152654555        3.0158112409       17.5233333787
  C        16.1772021952        1.6976593306       17.2555704062
  N        15.8723530926       13.7732125862        6.7235624045
  C        16.1428296215       12.4572885993        6.4410365729
  N        15.8847314498       19.6451646803        5.1825663064
  C        16.1679871074       20.9619937651        5.4400851099
  N        15.8294136133        8.8648653396       15.9743454063
  C        16.0891510090       10.1856733110       16.2499108896
  N        17.4546718301        6.7279583380       19.6635264556
  C        17.1989961587        6.4458638841       20.9817692113
  N        17.3970846750       17.4847346151        8.8936374994
  C        17.1147050326       17.2250902033       10.2094957602
  N         5.0171988389        6.7524315505        3.0419892293
  C         5.2764483933        6.4836010188        1.7230660563
  N         5.0202277738       17.6609252979       13.9053163970
  C         5.2997065250       17.3891541431       12.5894312777
  N        17.4405812662       15.9449300280        3.0249375145
  C        17.1712413837       16.2227243837        1.7076170918
  N        17.4717016253        5.1493249899       13.8063430502
  C        17.2050756285        5.4137725122       12.4869599282
  N         5.0309587075       16.1129190197       19.7764767954
  C         5.3143967588       16.3674338367       21.0930742313
  N         5.2123723820        5.3353546895        8.9043435035
  C         5.4867568939        5.6216222505       10.2185930421
  N        17.4229258444       19.6868130116       15.9808441675
  C        17.1665133831       21.0075071080       16.2467401597
  N        17.4461827202        8.8309071139        5.1328544392
  C        17.1673638432       10.1453999750        5.4101474019
  N         5.1089457865        3.1395214303       15.9658836022
  C         5.3515330786        1.8184499707       16.2544961460
  N         5.0361212512       13.9047933155        5.2417728186
  C         5.2979940560       12.5844723620        5.5031515327
  N        17.4903120644        2.9615719142        6.6891708341
  C        17.2073139334        1.6430328925        6.4340878919
  N        17.3895857546       13.8249648157       17.5360560975
  C        17.1141186772       12.5085901193       17.2638515801
  N         5.0360790841       19.7679545257        6.7915374708
  C         5.3061087979       21.0858056061        6.5172898433
  N         5.0293334452        8.9918615545       17.6440429369
  C         5.2754129602       10.3116623072       17.3590682737
  N        19.6238862319        6.7053631521        5.1650566997
  C        20.9411495956        6.4692801759        5.4658200894
  N         8.7922874841        6.7014624061       16.0151348948
  C        10.1090999085        6.3933918412       16.2469783787
  N         2.9135739789        6.8258603337       17.5358313703
  C         1.6032110568        6.5379629677       17.2495687859
  N        13.7689097560        6.5835540916        6.6975213068
  C        12.4536960461        6.3074549127        6.4274274472
  N         2.9070504867       16.0492079615        5.2194843384
  C         1.5855663056       16.2940982279        5.4880199000
  N        13.6725312846       16.0200165400       16.0463302137
  C        12.3619707829       16.3107982128       16.3309533900
  N        19.5593656282       15.9805280874       17.5356971777
  C        20.8749555499       16.2829563096       17.2894420226
  N         8.7468660713       16.0195860662        6.7706578607
  C        10.0680071248       16.2643104945        6.4888148572
  N         6.6235365798       17.6086282539        3.0943917982
  C         6.3486350445       17.3521156597        1.7756277800
  N         6.7596250603        6.9609450269       13.8561799923
  C         6.5000293429        6.6665017292       12.5390118162
  N         6.5738193691        5.2279486449       19.7254006575
  C         6.2909454723        5.4820417638       21.0409894123
  N         6.5973729306       16.0818431653        8.9584195154
  C         6.3283685697       16.3631990924       10.2749803117
  N        15.8895026350       17.5458664842       19.7179650847
  C        16.1594080234       17.2624380797       21.0329549680
  N        15.9240048774        6.6741730231        8.8379698642
  C        16.1948399653        6.4164423153       10.1579636248
  N        15.9471592478        5.1107898705        2.9739343098
  C        16.2090399444        5.3969061917        1.6589743136
  N        15.8019762514       15.9855511139       13.8542754043
  C        16.0779285022       16.2396203819       12.5335001647
 Zn        14.5005342015       14.7143259776       14.7400959174
 Br        13.1816123906       13.4002559550       13.4282329638
 Zn        14.6575899801        3.7987174869        3.8104763174
 Br        13.3423899562        2.4865758694        2.4945563297
 Zn         3.7724671455       14.7642006687        3.9305619737
 Br         2.4676665258       13.4451895441        2.6098415245
 Zn         3.8822397182        4.0607979307       14.6597216335
 Br         2.5899662778        2.7639472983       13.3050273998
 Zn         8.0091117312        8.1990572661       14.9100672246
 Br         9.6913739316        9.7629774625       14.7829766735
 Zn         7.9052711559       18.9037413089        3.9587753224
 Br         9.2361427595       20.2030037017        2.6470554629
 Zn        18.7634701531        7.9835862245        3.8526729281
 Br        20.0674935586        9.3153347874        2.5466161782
 Zn        18.6871163026       18.8142263496       14.6739958171
 Br        20.0074156302       20.1158398803       13.3528894613
 Zn         7.8644146679       14.7714644936        8.0900749443
 Br         9.2734574247       13.5712541552        9.4136180770
 Zn         7.8980684315        3.9471360652       18.8995060041
 Br         9.1828818614        2.6044510862       20.2121162721
 Zn        18.7031404558       14.6735675972       18.8202069431
 Br        20.0243353513       13.3565555858       20.1246970863
 Zn        18.7715227988        3.8310247473        7.9927736612
 Br        20.0940955388        2.5190155499        9.3030501638
 Zn        14.6034696717        7.9213825977        7.9606365312
 Br        13.3207518040        9.2266097394        9.3176218573
 Zn        14.6087628812       18.8641575764       18.8754475490
 Br        13.3227342236       20.1917982270       20.2042106482
 Zn         3.7277120985        8.0935451573       18.8869863387
 Br         2.3850348594        9.3680072529       20.2109574412
 Zn         3.7307323811       18.9025564048        8.0686959384
 Br         2.4138625056       20.2293188740        9.3705998121
 Zn        14.5636752671       14.6256864751        8.0091102598
 Br        13.2654955565       13.2977983238        9.3271999674
 Zn        14.6208991611        3.8580563151       18.8255911314
 Br        13.3033792897        2.5507740772       20.1429197549
 Zn         3.7274098228       14.8237257556       18.9334485762
 Br         2.4149403852       13.5071511537       20.2478945954
 Zn         3.8625951972        4.0221244301        8.1117348542
 Br         2.5650268980        2.7357768993        9.4687129431
 Zn         8.0554190249        8.1008899964        7.8491058353
 Br         9.7118631967        9.6541655365        8.1623813031
 Zn         7.8821729778       18.9644183226       18.9145860224
 Br         9.2058366908       20.2668954784       20.2298512270
 Zn        18.7218578375        8.0325911939       18.7901071955
 Br        20.0212471281        9.3618508286       20.1060863707
 Zn        18.6982373229       18.7803448702        8.0582334923
 Br        20.0076198309       20.0981138130        9.3748604568
 Zn        14.5879980789        7.9628466753       14.6562297038
 Br        13.2838311457        9.2583757615       13.3094724014
 Zn        14.5901418963       18.7857133176        3.8941413165
 Br        13.2782156746       20.1092957677        2.5849328382
 Zn         3.7520657200        8.0723123645        3.8970056934
 Br         2.4200381904        9.3767843865        2.5923267628
 Zn         3.7281693664       18.9482044165       14.7703339542
 Br         2.4184732384       20.2719664152       13.4580844596
 Zn         7.8472943488       14.8211819955       14.8031301323
 Br         9.2380858666       13.5914132411       13.4878614872
 Zn         7.8582559975        3.8685168054        3.8394354623
 Br         9.1100029646        2.5146068790        2.5060358113
 Zn        18.7370890995       14.6619512215        3.8964534469
 Br        20.0650607152       13.3645452274        2.5777958459
 Zn        18.7715831994        3.8709489113       14.6780139409
 Br        20.0996854460        2.5505634862       13.3819018088
 Zn         5.8707493037        6.0706471743       16.8233795151
 Zn        16.6182252201       16.7638463935       16.7756432550
 Zn        16.7023812532        5.8866837292        5.9013064134
 Zn         5.8279269739       16.8330240725        6.0175016386
 Zn         5.8842496801        6.0105472757        5.9435032300
 Zn        16.6499738622       16.7105379527        5.9598442970
 Zn         5.7941639476       16.8911005690       16.8582257583
 Zn        16.6735744017        5.9388133977       16.7271505160
  N         3.6796265929        6.0733235422       16.7517483192
  N        14.5157425712        5.8358473623        5.8922114094
  N        18.8083977748       16.7396909761       16.7430972829
  N         8.0088866201       16.8291920903        6.0184594212
  N        18.8808470877        5.9122351888        5.9306949200
  N         8.0490722819        5.9943205021       16.8555447911
  N         3.6403616465       16.8337109318        6.0020247052
  N        14.4379624909       16.7923126932       16.8120184739
  N        16.7231044272        3.7058975658        5.8980172604
  N        16.5953828704       14.5747965483       16.7777519448
  N        16.6510749835       18.9487598842       16.7727259583
  N        16.6618609923        8.0748904087        5.8949985537
  N         5.8134438120       19.0180891881        6.0153673621
  N         5.8109703870        8.2495683624       16.8662096481
  N         5.8785857773        3.8818863909       16.7568297768
  N         5.8008406895       14.6442184913        6.0385388019
  N         5.8471292334       16.8260895952        3.8371770538
  N         5.9692031522        6.1868236176       14.6070196226
  N        16.6564301888       16.7639832705       18.9638115457
  N        16.6931446047        5.8835856077        8.0968037677
  N         5.8036427180        6.0149312295       18.9812703164
  N         5.8130003228       16.8482164008        8.2061255704
  N        16.7193894958        5.8898847279        3.7247193379
  N        16.5882840075       16.7610865534       14.5950732844
  N         5.8433278586        3.8283708424        5.9905988656
  N         5.7733130692       14.7015095289       16.8529521812
  N        16.6481077183       18.8977686920        5.9734852354
  N        16.6313482799        8.1220715712       16.7326006524
  N         5.8009174744       19.0718116110       16.8402855867
  N         5.8592415262        8.1938277671        5.9055214379
  N        16.6966879586        3.7570915069       16.7445651732
  N        16.6572496158       14.5268530201        5.9590179132
  N         3.6154173093       16.8964803971       16.8586526158
  N        14.4595373326       16.7002065946        5.9447256961
  N        18.8321717452       16.7176138867        5.9801880573
  N         7.9867446874       16.8869415090       16.8685471960
  N        18.8674163402        5.9563957350       16.7287784719
  N         8.0644106885        5.9146705481        5.8734094285
  N         3.6892805933        6.0562396730        6.0360220972
  N        14.4956540308        5.8831362199       16.7211455377
  N        16.6801661147        5.9461235686       18.9169295505
  N        16.6229053999       16.7051265076        8.1453416758
  N        16.6621188465       16.7189126806        3.7755172787
  N        16.6977981433        5.9365578904       14.5473358206
  N         5.7945359279        5.9675653108        3.7818374409
  N         5.7976575017       16.8896465146       14.6591440129
  N         5.8037078523       16.8965414790       19.0311469692
  N         5.9996672096        6.0936534991        8.1474718868
  C        11.1885023879       15.7736250633       15.7991985224
  H        11.1671639362       14.9931292189       15.0292201353
  C        11.2793190548        4.8035057486        4.8181304179
  H        11.2707225057        4.0509410085        4.0209157873
  C         0.4393412517       15.7235026923        4.9288548470
  H         0.4616965983       14.9528558187        4.1488575152
  C         0.4759637844        4.9674422774       15.6652828461
  H         0.4928394243        4.1983957756       14.8838612190
  C        11.2678832305        6.8768374173       15.6354146446
  H        11.2724877499        7.6227838167       14.8350169840
  C        11.2432114222       17.8346925535        4.9388322615
  H        11.2500205715       18.6242906919        4.1778125972
  C         0.4583206402        7.0407655881        4.9335913994
  H         0.4558905810        7.8090959849        4.1507405573
  C         0.3852149987       17.8757731422       15.7419143984
  H         0.3782475639       18.6500266575       14.9652217430
  C        11.2249987574       15.6793925695        7.0110402934
  H        11.2178409707       14.8904098741        7.7725233141
  C        11.2759780307        4.8811423209       17.8575477525
  H        11.2800347283        4.1436000679       18.6686875477
  C         0.3990270105       15.7678482356       17.8640983431
  H         0.4063324456       14.9956137966       18.6428896071
  C         0.4692878053        4.9474948862        7.0698668037
  H         0.4706342730        4.1795742599        7.8526886045
  C        11.3022633702        6.8436398775        6.9985458166
  H        11.3159010318        7.6052044543        7.7847397936
  C        11.2378064898       17.9053187342       17.8953565653
  H        11.2587392229       18.6863533198       18.6648713421
  C         0.4307891438        7.0636085779       17.7972476329
  H         0.4130858038        7.8323927753       18.5794616754
  C         0.3930312542       17.8254146591        7.0570741228
  H         0.3709651092       18.5970126072        7.8362123151
  C        15.5227545573       11.3497991088       15.7219118595
  H        14.7336203789       11.3534423620       14.9604297966
  C        15.6358127553        0.4820571252        4.8732871918
  H        14.8637506226        0.4823374289        4.0941951263
  C         4.7615099374       11.4304758205        4.9258000878
  H         3.9959125276       11.4420305886        4.1407227236
  C         4.7936076066        0.6542893747       15.7187769981
  H         4.0269178079        0.6487713282       14.9347767182
  C        15.5861537383       11.2901698646        6.9710358347
  H        14.8047956923       11.2826346908        7.7405711790
  C        15.6216866820        0.5456766765       17.8163849234
  H        14.8497774868        0.5574020515       18.5955404623
  C         4.7231662260       11.4705723127       17.9126943602
  H         3.9590916075       11.4664712596       18.6992314485
  C         4.7698579756        0.6115708859        7.0732238433
  H         4.0035618917        0.6146842139        7.8576149501
  C         6.8030299914       11.4815201107       15.7676548948
  H         7.5827466039       11.4900033594       14.9990855494
  C         6.8549324804        0.5947992271        4.9288547825
  H         7.6183761437        0.5915340227        4.1412061330
  C        17.7216604536       11.3120513840        4.8777247522
  H        18.5043658590       11.3197260215        4.1095162465
  C        17.7233870691        0.5208297074       15.6874025073
  H        18.4931183298        0.5093380472       14.9063701305
  C         6.8460921438       11.4074866764        7.0662418205
  H         7.6267668386       11.3987020386        7.8340354264
  C         6.8784822430        0.6585017651       17.8629559146
  H         7.6426573136        0.6648327908       18.6498325839
  C        17.6775927046       11.3466850020       17.7948931747
  H        18.4673720780       11.3432148580       18.5559432458
  C        17.7378531623        0.4823435807        7.0019533026
  H        18.5079168272        0.4817499113        7.7827200623
  C        15.5304860729       15.6835770625       11.3736041981
  H        14.7489210816       14.9143646744       11.3767427533
  C        15.6576651422        4.8523008291        0.4979869564
  H        14.8889103317        4.0700378221        0.4945244770
  C         4.7717263517       15.8036172455        0.6092862076
  H         3.9939533536       15.0303241138        0.6053504415
  C         4.9314427694        5.0956725868       11.3873471800
  H         4.1499855614        4.3250805730       11.3973966116
  C         6.8798456539       15.8279008099       11.4418085232
  H         7.6643554151       15.0617839610       11.4505859746
  C         6.8341322258        4.9161652121        0.5548704553
  H         7.6059176749        4.1367346574        0.5499483762
  C        17.7149738681       15.6776889841        0.5412207121
  H        18.4861000346       14.8979241307        0.5343848545
  C        17.7492478779        4.8496593262       11.3305583423
  H        18.5185089211        4.0680934605       11.3369364516
  C        15.6521530396        6.9821102265       11.3144825767
  H        14.8829878672        7.7638883177       11.3075929691
  C        15.6132366806       17.8051935842        0.5581845628
  H        14.8426345486       18.5856370167        0.5653947469
  C         4.7263850833        7.0426999149        0.5676177362
  H         3.9545651696        7.8219521320        0.5725813202
  C         4.7521807466       17.9288535652       11.4228235314
  H         3.9733913377       18.7010259435       11.4148685643
  C         7.0615194897        7.1766947639       11.3662831001
  H         7.8378423907        7.9459023718       11.3554682355
  C         6.8928994193       17.9144670140        0.6182959209
  H         7.6706426390       18.6877431956        0.6232660789
  C        17.7501094483        6.9909027040        0.5042887801
  H        18.5159546841        7.7758726689        0.5073305807
  C        17.6637013817       17.7802065161       11.3668680364
  H        18.4463875049       18.5486887939       11.3638052494
 Xe         8.6380252951       10.5487902006       11.4597595320
