     409
 i =      56, E =    -5133.8601922002
  N         2.9563231441        5.2937616268       15.9571054347
  C         1.6306295212        5.5339559400       16.2225481053
  N        13.7736631926        5.0730383286        5.1000756736
  C        12.4539051675        5.3277386955        5.3820536567
  N        19.5565645521       17.5313766819       15.9760590082
  C        20.8748504002       17.2944749135       16.2710916447
  N         8.7682513810       17.6054416915        5.2457961037
  C        10.0833869646       17.3002762931        5.4920187587
  N        19.6345166198        5.1557180010        6.7270346911
  C        20.9510964066        5.4597989109        6.4866837440
  N         8.8015624531        5.2256552333       17.6371098949
  C        10.1181610939        5.4344369433       17.3108311465
  N         2.8851645960       17.5918737441        6.7840901241
  C         1.5721479808       17.3006136032        6.5096808119
  N        13.7151499947       17.5847888658       17.5943428972
  C        12.3903656904       17.3329458612       17.3405045365
  N        15.9476145441        2.9572268219        5.1240948626
  C        16.2026181735        1.6411226293        5.4121995403
  N        15.8066900260       13.8314975116       16.0123625576
  C        16.0836484929       12.5111375623       16.2689104728
  N        15.8924488353       19.7040972607       17.5555405141
  C        16.1664544772       21.0178715153       17.2724850368
  N        15.8758145239        8.8128895801        6.6672970603
  C        16.1456409755       10.1345174961        6.4133305863
  N         6.5919259846       19.7580822273        5.2317581020
  C         6.3187118977       21.0759329825        5.4944698229
  N         6.5818811632        8.9954842708       16.0699732783
  C         6.2933603457       10.3125801976       16.3300306000
  N         6.6343477334        3.1283399854       17.5546115800
  C         6.3530774842        1.8137320186       17.2891199502
  N         6.5757328084       13.8863069042        6.8289028382
  C         6.3101455104       12.5711409960        6.5382085687
  N         5.0715859703       16.0515141868        3.0871114549
  C         5.3353629413       16.3344560298        1.7719289019
  N         5.1942834676        5.3919642954       13.8611378393
  C         5.4782686622        5.6442085777       12.5427517488
  N        17.4329029117       15.9726186872       19.7028277676
  C        17.1706297845       16.2372187477       21.0238760563
  N        17.4716600263        5.1072135559        8.8495202372
  C        17.2075466027        5.3922394876       10.1651004357
  N         5.0243268260        6.7832883584       19.7291234640
  C         5.2839449446        6.4983259745       21.0449732361
  N         5.0385752908       17.6244912066        8.9466341234
  C         5.3117029421       17.3689884327       10.2669097856
  N        17.4910932321        6.6817393095        2.9824877886
  C        17.2182113581        6.4222930922        1.6631801593
  N        17.3810044646       17.5235308424       13.8429828402
  C        17.1091455746       17.2447569127       12.5284283811
  N         5.0798056866        3.0910796355        6.7898160394
  C         5.3254857022        1.7672420241        6.5171706068
  N         5.0096787669       13.9491798733       17.6347569672
  C         5.2705298441       12.6310094713       17.3553484661
  N        17.4336288305       19.6444290831        6.7495822055
  C        17.1819978267       20.9619079675        6.4626837909
  N        17.4193087498        8.8724180294       17.5034888449
  C        17.1297345233       10.1881291721       17.2476430466
  N         5.0398755784       19.8130616044       16.0475622060
  C         5.3245213013       21.1323425623       16.2975363266
  N         5.0840260929        8.9445729357        5.1520517920
  C         5.3303651120       10.2591333580        5.4598355836
  N        17.4750507891        3.0043455960       15.9664051082
  C        17.1949294829        1.6879815314       16.2372538732
  N        17.4471048896       13.7879475473        5.1791248836
  C        17.1730536936       12.4675497553        5.4333265025
  N         2.8773403244       16.1043544604       17.6279063633
  C         1.5596178948       16.3441492496       17.3338560538
  N        13.7122245255       15.9208085050        6.7132615116
  C        12.3966372842       16.2175023450        6.4582699389
  N        19.5979486520       15.9559094645        5.1979879408
  C        20.9109904878       16.2445106844        5.4756407547
  N         8.7233540821       16.0904029466       16.0981351783
  C        10.0460180789       16.3449001911       16.3562116779
  N        19.6050549107        6.7457300067       17.5073005528
  C        20.9270050161        6.4976574833       17.2392110499
  N         8.8282992041        6.6515646450        6.6780317004
  C        10.1406340675        6.3473906848        6.4189328648
  N         2.9400710197        6.8079504381        5.2418287095
  C         1.6259318931        6.5192089924        5.5057969411
  N        13.7494263406        6.6204350819       15.9098962280
  C        12.4351395455        6.3542677158       16.1992133186
  N        15.9226170356        5.1545352608       19.6650373781
  C        16.1996443014        5.4182073880       20.9809709987
  N        15.8395674379       15.9362318203        8.8902362410
  C        16.0977647491       16.2162994212       10.2097228695
  N        15.8915674428       17.5013547677        3.0324341246
  C        16.1637010880       17.2408817537        1.7137394210
  N        15.9347469791        6.7165477762       13.7957016849
  C        16.2040131995        6.4369932885       12.4794245964
  N         6.5678426389        5.1823247302        3.0284504547
  C         6.2921342417        5.4592814101        1.7154690285
  N         6.5889595566       16.1132985688       13.9186942486
  C         6.3262713821       16.3771804426       12.5984139653
  N         6.5938854563       17.6622726450       19.7789313675
  C         6.3357557964       17.3774492700       21.0962366427
  N         6.7956715375        6.8566838415        8.8850810496
  C         6.5196783529        6.6045751822       10.2060558031
  N        19.5706256874       17.4993661400        6.7653091464
  C        20.8921574319       17.2530799670        6.4981687907
  N         8.7528472977       17.6621617347       17.6355734337
  C        10.0667308995       17.3703182277       17.3618882496
  N         2.9550187089        5.2763498274        6.8204958114
  C         1.6334430914        5.5165961147        6.5344707768
  N        13.7606238150        5.1364398983       17.5338658333
  C        12.4404570673        5.3905844883       17.2619792558
  N         2.8713416409       17.6536264485       16.0653172109
  C         1.5549774087       17.3560143515       16.3144734778
  N        13.7251162042       17.5031978896        5.1847015870
  C        12.4050690099       17.2514119219        5.4616748467
  N        19.6322827837        5.1900360441       15.9514065552
  C        20.9464601272        5.4852263914       16.2203843293
  N         8.8035959343        5.1342510535        5.0883306060
  C        10.1272357462        5.3590605221        5.3774624088
  N         6.5861038308       19.8176055718       17.6150678492
  C         6.3307875555       21.1339963398       17.3229779241
  N         6.6342680388        8.9278540668        6.7107499506
  C         6.3403414825       10.2487588521        6.4808568744
  N         6.5974982299        3.0664110674        5.1971548989
  C         6.3207429402        1.7546854736        5.4814754044
  N         6.5437429674       13.9515193545       16.0590029055
  C         6.2712011621       12.6343922659       16.3265315231
  N        15.9204764353        3.0149270964       17.5235871766
  C        16.1823691182        1.6967728496       17.2558583816
  N        15.8781255587       13.7735323870        6.7227330163
  C        16.1485314746       12.4575683376        6.4403068610
  N        15.8905188505       19.6449461815        5.1825405805
  C        16.1735814007       20.9617380867        5.4400582694
  N        15.8365792731        8.8649849069       15.9747472019
  C        16.0957714824       10.1858401657       16.2503436574
  N        17.4593897372        6.7271758885       19.6638901441
  C        17.2035716576        6.4449986400       20.9820335500
  N        17.4028585532       17.4847881746        8.8936719854
  C        17.1199997462       17.2253090486       10.2095244970
  N         5.0259881999        6.7509570116        3.0422437050
  C         5.2840968259        6.4819823174        1.7231168228
  N         5.0246320308       17.6583035527       13.9054618740
  C         5.3041613529       17.3861147997       12.5896106617
  N        17.4462541985       15.9446066031        3.0245695037
  C        17.1764825509       16.2222816557        1.7072739821
  N        17.4777122648        5.1479813687       13.8058214611
  C        17.2110891313        5.4127183247       12.4864725015
  N         5.0353339333       16.1087289995       19.7769917868
  C         5.3182667830       16.3634625494       21.0938054173
  N         5.2087437906        5.3248383001        8.9045300768
  C         5.4860899027        5.6084443004       10.2184986255
  N        17.4283965830       19.6859199680       15.9809050764
  C        17.1718576741       21.0066267115       16.2468890040
  N        17.4515348892        8.8310812399        5.1320805223
  C        17.1729407198       10.1456010245        5.4093770759
  N         5.1130147505        3.1370692520       15.9664870156
  C         5.3561252388        1.8161176798       16.2551967258
  N         5.0461905501       13.9010685452        5.2476276157
  C         5.3100993378       12.5809009716        5.5083660321
  N        17.4953370082        2.9614400077        6.6885134735
  C        17.2125584795        1.6428643004        6.4336133896
  N        17.3947380126       13.8253717098       17.5362342206
  C        17.1196259873       12.5089669451       17.2641372378
  N         5.0398264512       19.7650254403        6.7917277560
  C         5.3100638102       21.0828081502        6.5171860677
  N         5.0404823415        8.9870676985       17.6384999463
  C         5.2879227553       10.3070786266       17.3557330170
  N        19.6291589165        6.7055695458        5.1641166530
  C        20.9464973630        6.4691156821        5.4646068290
  N         8.7992692592        6.7104618577       16.0174156102
  C        10.1157260458        6.4009455697       16.2494273141
  N         2.9184941740        6.8246075450       17.5361844384
  C         1.6078890035        6.5368415629       17.2506867644
  N        13.7744118258        6.5870079207        6.6962133705
  C        12.4590836853        6.3124384266        6.4255470677
  N         2.9125872491       16.0444756394        5.2216695945
  C         1.5909956727       16.2904259009        5.4890543016
  N        13.6769668204       16.0201026819       16.0470450918
  C        12.3664758638       16.3109585887       16.3318266156
  N        19.5644080603       15.9798470778       17.5357519297
  C        20.8801258419       16.2815937445       17.2895245269
  N         8.7538646171       16.0199509231        6.7705830425
  C        10.0745741326       16.2648503140        6.4877502451
  N         6.6270384501       17.6054870034        3.0950826456
  C         6.3518414823       17.3488360365        1.7764478734
  N         6.7624624880        6.9429643433       13.8545053070
  C         6.5048015111        6.6480331677       12.5376324849
  N         6.5798375715        5.2269620638       19.7246816268
  C         6.2971830243        5.4805944764       21.0404734817
  N         6.6049026466       16.0786680674        8.9594021600
  C         6.3343797651       16.3599780870       10.2756554364
  N        15.8942024188       17.5457650178       19.7178345198
  C        16.1642013717       17.2621301159       21.0327426193
  N        15.9291446310        6.6741026790        8.8378134630
  C        16.2004150705        6.4161281092       10.1577623462
  N        15.9509546816        5.1103260533        2.9741521251
  C        16.2132044036        5.3961429964        1.6591433364
  N        15.8064051569       15.9860801525       13.8544515729
  C        16.0825132268       16.2400988594       12.5336044549
 Zn        14.5042309342       14.7145408065       14.7407147704
 Br        13.1892441179       13.3984736175       13.4274962319
 Zn        14.6607151119        3.7985533229        3.8118191610
 Br        13.3459418176        2.4867028852        2.4953177238
 Zn         3.7797695074       14.7592196151        3.9355629379
 Br         2.4761887169       13.4391020146        2.6144454482
 Zn         3.8812813434        4.0559912903       14.6617081589
 Br         2.5892471016        2.7565966831       13.3091700644
 Zn         8.0091970559        8.1871230449       14.8855472616
 Br         9.6804843513        9.7380579964       14.6137138444
 Zn         7.9083408073       18.9010637201        3.9581085771
 Br         9.2379490287       20.2015340864        2.6459822146
 Zn        18.7675149256        7.9832943311        3.8519048925
 Br        20.0727240850        9.3140411122        2.5456476672
 Zn        18.6951053093       18.8134366240       14.6742955207
 Br        20.0132250673       20.1161311761       13.3525644835
 Zn         7.8807539116       14.7710954582        8.0943392318
 Br         9.3021961270       13.5798721101        9.4132741524
 Zn         7.9027792299        3.9471538128       18.8962519145
 Br         9.1894425449        2.6061435060       20.2093871875
 Zn        18.7079576707       14.6735087597       18.8204397722
 Br        20.0299565405       13.3567272890       20.1244965452
 Zn        18.7754743855        3.8310041887        7.9920233177
 Br        20.0992221147        2.5193163577        9.3017290445
 Zn        14.6085903203        7.9229589089        7.9609125332
 Br        13.3331857578        9.2321096518        9.3195113865
 Zn        14.6124786146       18.8640902333       18.8755192170
 Br        13.3273415904       20.1918547607       20.2048506012
 Zn         3.7342612054        8.0925309726       18.8842314197
 Br         2.3950250592        9.3699068520       20.2087278514
 Zn         3.7347295259       18.8978965608        8.0694154325
 Br         2.4186065216       20.2250384507        9.3715396256
 Zn        14.5696593345       14.6261802528        8.0086085487
 Br        13.2733309920       13.2973593668        9.3270941617
 Zn        14.6263411435        3.8575570578       18.8250573791
 Br        13.3079498768        2.5510221828       20.1423238235
 Zn         3.7322110045       14.8200208391       18.9318546350
 Br         2.4215593931       13.5021206758       20.2466942724
 Zn         3.8612597258        4.0144424489        8.1092142534
 Br         2.5638254727        2.7273121959        9.4651581913
 Zn         8.0572608225        8.0884114099        7.8667002391
 Br         9.6971673427        9.6191037959        8.3243501855
 Zn         7.8860065077       18.9610340350       18.9169941600
 Br         9.2084197925       20.2654308352       20.2318206750
 Zn        18.7260368377        8.0320557068       18.7913832233
 Br        20.0269293790        9.3605311260       20.1069295411
 Zn        18.7047797122       18.7799859204        8.0580081925
 Br        20.0137088421       20.0980148244        9.3746216557
 Zn        14.5968336521        7.9635211387       14.6557643820
 Br        13.3001526419        9.2626121356       13.3063991919
 Zn        14.5963106469       18.7862709763        3.8935748054
 Br        13.2836743477       20.1095689853        2.5846861965
 Zn         3.7668932228        8.0720742831        3.8993001211
 Br         2.4328314877        9.3772268810        2.5963838765
 Zn         3.7320319134       18.9461322563       14.7706539879
 Br         2.4226600542       20.2694994941       13.4580605093
 Zn         7.8540427528       14.8201746883       14.8012266714
 Br         9.2609243291       13.6003290577       13.4917991932
 Zn         7.8659815582        3.8661213712        3.8411897793
 Br         9.1184749325        2.5138769372        2.5071498817
 Zn        18.7445148279       14.6618672595        3.8959442386
 Br        20.0711723052       13.3641083020        2.5765974573
 Zn        18.7755486067        3.8691173178       14.6783557433
 Br        20.1052099100        2.5496257750       13.3828562448
 Zn         5.8793329594        6.0685845774       16.8217936645
 Zn        16.6226601397       16.7638626825       16.7754261031
 Zn        16.7076666240        5.8868089781        5.9013836060
 Zn         5.8339513848       16.8306414539        6.0193617849
 Zn         5.8885649071        6.0076035352        5.9450741844
 Zn        16.6547137585       16.7104664989        5.9595492853
 Zn         5.7982500257       16.8889353552       16.8587780534
 Zn        16.6797798211        5.9385527329       16.7269650172
  N         3.6844165079        6.0710885267       16.7528607482
  N        14.5210085327        5.8366400015        5.8931516085
  N        18.8137238478       16.7393253620       16.7432732076
  N         8.0150090484       16.8287307004        6.0184325477
  N        18.8860130930        5.9123644018        5.9296335670
  N         8.0553696231        5.9991320896       16.8540006259
  N         3.6459487354       16.8289672552        6.0041412272
  N        14.4424853063       16.7923108108       16.8126733362
  N        16.7278922366        3.7057001982        5.8975822419
  N        16.6002762012       14.5750202348       16.7779669076
  N        16.6561480341       18.9479689644       16.7725867639
  N        16.6674248359        8.0751210727        5.8945726989
  N         5.8172402095       19.0150841113        6.0156593558
  N         5.8244033783        8.2456743004       16.8618249553
  N         5.8835028891        3.8796263286       16.7563677673
  N         5.8118448377       14.6409255341        6.0433335503
  N         5.8517357430       16.8222266794        3.8381947110
  N         5.9679649509        6.1746910625       14.6057761526
  N        16.6612288859       16.7640597316       18.9635726997
  N        16.6981671914        5.8836221203        8.0964530797
  N         5.8098482407        6.0143313429       18.9808413161
  N         5.8203929738       16.8447433436        8.2066587402
  N        16.7232986192        5.8894450507        3.7248509147
  N        16.5932382449       16.7612352978       14.5951943960
  N         5.8477854835        3.8252853471        5.9896061709
  N         5.7805017393       14.6979054441       16.8514324301
  N        16.6539706080       18.8975987749        5.9734053272
  N        16.6380018537        8.1223244339       16.7334357728
  N         5.8049240894       19.0694732420       16.8415910421
  N         5.8737312036        8.1904029982        5.9102613769
  N        16.7018216216        3.7562419258       16.7448243340
  N        16.6630034535       14.5270500508        5.9580798751
  N         3.6206443025       16.8931098616       16.8582844465
  N        14.4654594319       16.7008661504        5.9436678477
  N        18.8376502024       16.7174982431        5.9795063041
  N         7.9912586693       16.8859003829       16.8696480225
  N        18.8720715115        5.9558814206       16.7294031026
  N         8.0698843501        5.9173299160        5.8740993556
  N         3.6946173562        6.0536432055        6.0346740658
  N        14.5017430819        5.8833909367       16.7204634554
  N        16.6850060723        5.9454865721       18.9170803056
  N        16.6285873459       16.7053116298        8.1452839812
  N        16.6678998161       16.7187305932        3.7751775947
  N        16.7043822082        5.9355345494       14.5470456587
  N         5.8029121494        5.9655545744        3.7818896667
  N         5.8022071584       16.8873574002       14.6595137452
  N         5.8077211476       16.8929538550       19.0318873349
  N         5.9981319807        6.0804435358        8.1474064121
  C        11.1932039718       15.7740049533       15.7998407634
  H        11.1716314734       14.9938964440       15.0294872284
  C        11.2845174095        4.8045454080        4.8196546022
  H        11.2760766023        4.0501887705        4.0240517642
  C         0.4445225816       15.7206949176        4.9295502112
  H         0.4663591665       14.9497257023        4.1498345456
  C         0.4803547353        4.9654082684       15.6673812951
  H         0.4973512125        4.1958508678       14.8864333690
  C        11.2749153810        6.8849595505       15.6391106523
  H        11.2781535437        7.6321190097       14.8394222227
  C        11.2489585387       17.8347882804        4.9371654248
  H        11.2556183207       18.6242795305        4.1760597063
  C         0.4639239896        7.0407611260        4.9326366479
  H         0.4613723483        7.8095502644        4.1503000545
  C         0.3909423335       17.8741804517       15.7422418353
  H         0.3844213445       18.6486148886       14.9657051171
  C        11.2315130784       15.6800303128        7.0099339878
  H        11.2241285458       14.8914174850        7.7718066973
  C        11.2812851760        4.8829471840       17.8558511471
  H        11.2848371360        4.1436414516       18.6654633785
  C         0.4039013045       15.7656047949       17.8639392946
  H         0.4106949322       14.9931815192       18.6425472241
  C         0.4742565378        4.9460691809        7.0674174871
  H         0.4756182976        4.1777295068        7.8498769695
  C        11.3077218007        6.8523460783        6.9936714638
  H        11.3196287995        7.6153620405        7.7790086845
  C        11.2422651617       17.9049002293       17.8966905074
  H        11.2632487955       18.6857671074       18.6663767651
  C         0.4354901418        7.0629495154       17.7979855604
  H         0.4177541377        7.8321015068       18.5798006015
  C         0.3988353193       17.8233687484        7.0571323887
  H         0.3771856059       18.5951036494        7.8361315794
  C        15.5289574956       11.3496626199       15.7220842310
  H        14.7401829534       11.3527254132       14.9602086876
  C        15.6411106263        0.4816180088        4.8731613497
  H        14.8690510059        0.4816315189        4.0941025438
  C         4.7732263327       11.4265748177        4.9320058827
  H         4.0060417500       11.4375715526        4.1483176358
  C         4.7980375446        0.6518947585       15.7197855341
  H         4.0311293616        0.6464842525       14.9360055106
  C        15.5920902618       11.2904604874        6.9705946444
  H        14.8110606150       11.2827001467        7.7404882367
  C        15.6268253865        0.5447608066       17.8165418592
  H        14.8549660633        0.5565118494       18.5957347015
  C         4.7337103535       11.4652800594       17.9091656901
  H         3.9681324352       11.4600138707       18.6943374383
  C         4.7737749498        0.6088810087        7.0723509599
  H         4.0072693598        0.6126756964        7.8565468357
  C         6.8189713633       11.4788545913       15.7691574283
  H         7.5992151842       11.4869689731       15.0007167378
  C         6.8600151063        0.5913887452        4.9290883347
  H         7.6238938212        0.5876158561        4.1418693887
  C        17.7270798393       11.3122288367        4.8767546104
  H        18.5095909385       11.3199257186        4.1083765020
  C        17.7287447961        0.5200019772       15.6877493488
  H        18.4986051212        0.5087180481       14.9068290144
  C         6.8634629485       11.4044723724        7.0674581043
  H         7.6444732517       11.3943988512        7.8352459629
  C         6.8838601330        0.6562524105       17.8629572695
  H         7.6484505745        0.6626445883       18.6494456420
  C        17.6833664026       11.3473512020       17.7955693204
  H        18.4730844489       11.3442876508       18.5566749361
  C        17.7433892617        0.4823560849        7.0016255601
  H        18.5135717227        0.4820553460        7.7822964992
  C        15.5351544883       15.6842445638       11.3735103339
  H        14.7535491386       14.9150490960       11.3764144539
  C        15.6620428794        4.8515339036        0.4980374094
  H        14.8932509730        4.0693405826        0.4944244167
  C         4.7760713074       15.7992824025        0.6101902195
  H         3.9988065250       15.0255137160        0.6061644848
  C         4.9287697021        5.0842491383       11.3868517417
  H         4.1448283891        4.3163916266       11.3970780337
  C         6.8854207804       15.8251659651       11.4428113347
  H         7.6709744447       15.0601629975       11.4521937206
  C         6.8403544887        4.9140707088        0.5541459395
  H         7.6117904563        4.1343135391        0.5487514278
  C        17.7199474154       15.6772841589        0.5407654478
  H        18.4909868042       14.8974376266        0.5337516003
  C        17.7549120581        4.8487944120       11.3298088293
  H        18.5241158862        4.0671554884       11.3357953344
  C        15.6583275357        6.9817384293       11.3145542854
  H        14.8894622141        7.7638148641       11.3081573563
  C        15.6181230541       17.8047085219        0.5580668050
  H        14.8474252277       18.5850440159        0.5653641007
  C         4.7336187575        7.0414108116        0.5679327948
  H         3.9619605352        7.8208331170        0.5734680407
  C         4.7568807519       17.9252457703       11.4226150013
  H         3.9780110484       18.6973608889       11.4141553862
  C         7.0726060945        7.1528991150       11.3655178850
  H         7.8554974489        7.9145553866       11.3542690077
  C         6.8954733893       17.9118014576        0.6191548708
  H         7.6725272377       18.6858205706        0.6241780052
  C        17.7546396823        6.9900135252        0.5045491901
  H        18.5205406455        7.7749575001        0.5076153905
  C        17.6688590387       17.7802368847       11.3670603351
  H        18.4516262461       18.5486021428       11.3641221411
 Xe         8.1554873945       10.6756366919       11.4540133876
