     409
 i =      56, E =    -5133.8714117868
  N         2.9101388527        5.2679457833       15.9740560599
  C         1.5870860754        5.5154698005       16.2377171327
  N        13.7181977548        5.0899789307        5.1262500162
  C        12.4011854288        5.3668884409        5.3994279080
  N        19.5349436305       17.5311090790       15.9864198926
  C        20.8532080864       17.2921859250       16.2786220160
  N         8.7420285442       17.5985313649        5.2425853569
  C        10.0570250905       17.2967750110        5.4912381665
  N        19.5884878425        5.1460931847        6.7216906244
  C        20.9043635089        5.4495683107        6.4786636823
  N         8.7574342505        5.2416215245       17.6155229496
  C        10.0746974679        5.4718360937       17.3090538839
  N         2.8570095444       17.5890655389        6.7799239914
  C         1.5438018523       17.2989030671        6.5070722948
  N        13.6871801067       17.5782917839       17.6005100233
  C        12.3642380474       17.3239726564       17.3398443970
  N        15.8928571036        2.9585561897        5.1354140495
  C        16.1553422207        1.6420907584        5.4157775398
  N        15.8032075819       13.8227191105       16.0234612541
  C        16.0801902329       12.5022664472       16.2810879668
  N        15.8617648373       19.6941295361       17.5617551407
  C        16.1314657071       21.0085967706       17.2796946697
  N        15.8648565570        8.8197172497        6.6782847102
  C        16.1331252285       10.1404047508        6.4197865799
  N         6.5690956640       19.7486053345        5.2240724325
  C         6.2935416075       21.0665546338        5.4839344812
  N         6.5710112282        8.9810686242       16.0806962717
  C         6.2886584536       10.2987173993       16.3454022682
  N         6.6018906603        3.1164252305       17.5586122250
  C         6.3228550890        1.8001991333       17.2969935529
  N         6.5551781157       13.8832218588        6.8018457310
  C         6.2989655130       12.5653541895        6.5138615408
  N         5.0400133888       16.0438870956        3.0842770931
  C         5.3062884072       16.3248318636        1.7690754145
  N         5.0948426687        5.3142615830       13.8577125848
  C         5.3726313125        5.5794952505       12.5414110890
  N        17.4120747396       15.9716694254       19.7072944085
  C        17.1470244509       16.2363162365       21.0273184931
  N        17.4342339393        5.1005416938        8.8548908345
  C        17.1714305691        5.3809024164       10.1717565524
  N         4.9920504837        6.7738474192       19.7282652517
  C         5.2542541854        6.4925244738       21.0444199604
  N         5.0060065960       17.6273024672        8.9417159739
  C         5.2791628501       17.3694923434       10.2613765378
  N        17.4387655767        6.6686847029        2.9905322818
  C        17.1669292899        6.4059828102        1.6724568976
  N        17.3696667410       17.5260310844       13.8482976842
  C        17.0974814976       17.2473784774       12.5337462205
  N         5.0309452694        3.0757696973        6.7635450056
  C         5.2871568991        1.7545481084        6.4945897732
  N         4.9865311838       13.9349108771       17.6331549901
  C         5.2578957333       12.6173052524       17.3608042530
  N        17.4037607736       19.6471136623        6.7412256527
  C        17.1480757366       20.9639657215        6.4563316939
  N        17.4108352532        8.8644463413       17.5316739648
  C        17.1243727563       10.1802576971       17.2706038056
  N         5.0118749246       19.7998430234       16.0516202619
  C         5.2937353266       21.1181931045       16.3059468603
  N         5.0512641391        8.9336353876        5.1611754871
  C         5.3091349261       10.2490634012        5.4544495181
  N        17.4337515609        2.9958787748       15.9795385361
  C        17.1546765914        1.6799758790       16.2489829444
  N        17.4268774263       13.7899548425        5.1704445421
  C        17.1535600217       12.4703401336        5.4287163891
  N         2.8562887979       16.0956182845       17.6265600699
  C         1.5382707489       16.3375055705       17.3360072546
  N        13.6899235300       15.9292042459        6.7123407081
  C        12.3723173163       16.2206822896        6.4605078890
  N        19.5690360299       15.9591855071        5.1977271449
  C        20.8818390075       16.2459402893        5.4757497039
  N         8.7028934626       16.0823024946       16.0793425155
  C        10.0246252101       16.3364641366       16.3432692684
  N        19.5682777254        6.7263919708       17.5263783830
  C        20.8888265690        6.4817602411       17.2529042427
  N         8.7763898109        6.7068300757        6.6819526333
  C        10.0902653518        6.4113564720        6.4175585363
  N         2.8927576583        6.7987641763        5.2321502340
  C         1.5780325543        6.5113855753        5.4954747962
  N        13.7177154351        6.6606354051       15.9402416678
  C        12.3985043156        6.4135087354       16.2281773399
  N        15.8729314644        5.1437356462       19.6724776761
  C        16.1479550988        5.4048937636       20.9898653809
  N        15.8256638171       15.9466898515        8.8939284468
  C        16.0849737275       16.2221329541       10.2142514955
  N        15.8613244655       17.5015903388        3.0322055372
  C        16.1348910746       17.2400492856        1.7142306010
  N        15.9107898982        6.6960506878       13.8092261176
  C        16.1749174442        6.4189893577       12.4912543910
  N         6.5432778341        5.1894310409        3.0309741372
  C         6.2669932207        5.4626130685        1.7169935257
  N         6.5536503692       16.1071993818       13.9117341399
  C         6.2906028419       16.3722861166       12.5914188223
  N         6.5706583201       17.6467757950       19.7761490471
  C         6.3110374661       17.3639016842       21.0934794362
  N         6.6684360756        6.8078772339        8.8864398238
  C         6.3964652202        6.5628538634       10.2099330430
  N        19.5427594896       17.5050284431        6.7629219228
  C        20.8641726907       17.2559458210        6.4969163494
  N         8.7261305914       17.6463205385       17.6258600414
  C        10.0408320346       17.3576778079       17.3535463363
  N         2.9051616575        5.2546751048        6.7988711905
  C         1.5850817308        5.5024202110        6.5177221227
  N        13.7128637699        5.1408122410       17.5297697069
  C        12.3959563811        5.4214810084       17.2665860497
  N         2.8484866617       17.6463234797       16.0659576920
  C         1.5326154665       17.3503539455       16.3177425908
  N        13.6956270928       17.5060179054        5.1797409703
  C        12.3774097827       17.2515292267        5.4603245233
  N        19.5926756907        5.1703012673       15.9709416042
  C        20.9062265509        5.4676942434       16.2358023991
  N         8.7541090825        5.1582907641        5.1209967390
  C        10.0767252103        5.4010159511        5.3966145583
  N         6.5639330897       19.8035492139       17.6126651851
  C         6.3051537947       21.1203048907       17.3262021868
  N         6.6159412920        8.9218283619        6.7064906649
  C         6.3283266924       10.2424678212        6.4667728811
  N         6.5656505213        3.0594474754        5.1876502234
  C         6.2917475166        1.7457418284        5.4681889235
  N         6.5326262039       13.9402703321       16.0687996169
  C         6.2683892808       12.6214153568       16.3403942584
  N        15.8726703423        3.0048941485       17.5300155716
  C        16.1382920388        1.6869067333       17.2638219459
  N        15.8661303840       13.7804720863        6.7212962621
  C        16.1346910499       12.4633258315        6.4416540044
  N        15.8565777957       19.6456003772        5.1780168896
  C        16.1368392209       20.9627032777        5.4365571304
  N        15.8419595050        8.8559355231       15.9899482061
  C        16.0978724960       10.1769434074       16.2656627604
  N        17.4221899257        6.7052004560       19.6766698824
  C        17.1593373153        6.4244985927       20.9930495045
  N        17.3844636345       17.4970936971        8.8984256885
  C        17.1051354200       17.2331517411       10.2143930822
  N         4.9927839603        6.7494341362        3.0418487285
  C         5.2538263360        6.4803095408        1.7230319643
  N         4.9937486267       17.6568588025       13.9003523634
  C         5.2717832456       17.3846450010       12.5841409757
  N        17.4210531901       15.9494466995        3.0265471454
  C        17.1507423563       16.2244685841        1.7093781280
  N        17.4527744273        5.1276542009       13.8126890828
  C        17.1817437521        5.3942426594       12.4939969166
  N         5.0117735924       16.0949987804       19.7736103657
  C         5.2926887825       16.3509931701       21.0907055761
  N         5.1080645103        5.2566351434        8.9083834749
  C         5.3790356443        5.5486308555       10.2212678159
  N        17.4022427364       19.6813199149       15.9922259582
  C        17.1399628453       21.0005057544       16.2572723739
  N        17.4232994104        8.8325683213        5.1274228053
  C        17.1512376600       10.1481856420        5.4066796495
  N         5.0627853091        3.1182461360       15.9873162275
  C         5.3163884369        1.7998261718       16.2725685731
  N         5.0129048520       13.8885914165        5.2343839125
  C         5.2888988517       12.5702943370        5.4927959453
  N        17.4480231036        2.9623514130        6.6918338869
  C        17.1695885832        1.6441374254        6.4328596176
  N        17.3837250616       13.8185870900       17.5529997242
  C        17.1113471875       12.5016949092       17.2812543575
  N         5.0102488160       19.7555570237        6.7774822128
  C         5.2795782500       21.0724537213        6.5013572096
  N         5.0126978058        8.9734031186       17.6335431763
  C         5.2726958909       10.2933334763       17.3613492964
  N        19.5815085460        6.6974156048        5.1610012802
  C        20.8990672904        6.4612018059        5.4589669722
  N         8.7583906198        6.7689370279       16.0343295213
  C        10.0764114403        6.4676318159       16.2738249066
  N         2.8787573136        6.8110136443       17.5408841776
  C         1.5674273574        6.5244945152       17.2595101124
  N        13.7305761375        6.6344615863        6.6927964533
  C        12.4110448122        6.3751242333        6.4224658418
  N         2.8816068693       16.0393356487        5.2195800236
  C         1.5609080382       16.2873607793        5.4878536622
  N        13.6598247875       16.0164881034       16.0522292988
  C        12.3462895348       16.3036071449       16.3289062393
  N        19.5440697783       15.9773857725       17.5439451039
  C        20.8592979869       16.2781104653       17.2957968655
  N         8.7287206188       16.0207097087        6.7737625133
  C        10.0496283182       16.2654314927        6.4911300419
  N         6.6002125755       17.5942913074        3.0920681596
  C         6.3249960169       17.3370767016        1.7736098363
  N         6.6414036284        6.8792436136       13.8587143884
  C         6.3848037057        6.5992094206       12.5381096551
  N         6.5543138300        5.2244788697       19.7243230993
  C         6.2719682548        5.4791084989       21.0406684389
  N         6.5672185792       16.0771498634        8.9509053364
  C         6.2984678935       16.3569981726       10.2683141840
  N        15.8678787645       17.5388699070       19.7193170695
  C        16.1372559281       17.2577613700       21.0343539515
  N        15.8930928723        6.6682889557        8.8492866076
  C        16.1648784933        6.4054224530       10.1687398312
  N        15.8878235657        5.1080978887        2.9851151530
  C        16.1548881214        5.3867173457        1.6689940664
  N        15.8005556719       15.9838897307       13.8604788473
  C        16.0734444398       16.2397919620       12.5389435909
 Zn        14.5095340923       14.7193966376       14.7639223747
 Br        13.1804043503       13.4252845523       13.4598261833
 Zn        14.5974868958        3.8048850381        3.8381258350
 Br        13.2797311771        2.4962292069        2.5207467773
 Zn         3.7401451871       14.7521648303        3.9306424004
 Br         2.4368953882       13.4339819842        2.6086085332
 Zn         3.7973869115        3.9992794923       14.6828312633
 Br         2.4994125843        2.6912342379       13.3462950625
 Zn         7.8969935482        8.1269819469       14.8214286906
 Br         9.3275076717        9.5538342016       13.7927445013
 Zn         7.8880441074       18.8901301046        3.9526079216
 Br         9.2101214949       20.1956513701        2.6376945790
 Zn        18.7226220539        7.9685828795        3.8458070511
 Br        20.0322669897        9.2915455008        2.5350002462
 Zn        18.6734436591       18.8169016301       14.6885383707
 Br        19.9918136204       20.1188761482       13.3660716355
 Zn         7.8370411155       14.7717296343        8.0777917096
 Br         9.1498459129       13.4925324086        9.4129663344
 Zn         7.8777690580        3.9504687514       18.8834545398
 Br         9.1748312634        2.6200586040       20.1974706040
 Zn        18.6905664610       14.6725338554       18.8306816599
 Br        20.0105938950       13.3566112850       20.1381563683
 Zn        18.7328353268        3.8253434811        7.9927898261
 Br        20.0554276590        2.5112641520        9.3006655945
 Zn        14.5992358756        7.9356606180        7.9660358880
 Br        13.2987802597        9.2430192008        9.2911139601
 Zn        14.5845611613       18.8533184913       18.8808257685
 Br        13.2992514684       20.1847271486       20.2072356085
 Zn         3.7020410188        8.0791676949       18.8810482074
 Br         2.3702009246        9.3660435698       20.2045224954
 Zn         3.7062720281       18.8980947897        8.0639200614
 Br         2.3879321921       20.2254021662        9.3626250787
 Zn        14.5673344975       14.6515252194        7.9997100829
 Br        13.2665007932       13.3272281732        9.3015586687
 Zn        14.5722154581        3.8535871359       18.8223928543
 Br        13.2536868256        2.5491786421       20.1412664662
 Zn         3.7089485951       14.8088410011       18.9285805052
 Br         2.3945384381       13.4948747157       20.2443914945
 Zn         3.7858213526        3.9636145200        8.0781745429
 Br         2.4779577307        2.6707049662        9.4198285033
 Zn         7.9448904523        8.0447797034        7.9397434243
 Br         9.3470707007        9.4207393066        9.0685588139
 Zn         7.8566004851       18.9424712270       18.9119044435
 Br         9.1837095456       20.2490199923       20.2222876438
 Zn        18.7060319132        8.0095784266       18.8237336398
 Br        20.0092876494        9.3314309664       20.1408538358
 Zn        18.6748703854       18.7905016454        8.0538038464
 Br        19.9879649135       20.1083501174        9.3667495955
 Zn        14.6037647863        7.9576505844       14.6756567648
 Br        13.3204046755        9.2687212062       13.3422578680
 Zn        14.5601376475       18.7878481825        3.8886819784
 Br        13.2517451915       20.1112142738        2.5770736268
 Zn         3.7310710902        8.0682467079        3.9025025596
 Br         2.4050332227        9.3794821364        2.5975236144
 Zn         3.7018697351       18.9411349327       14.7705158197
 Br         2.3897973611       20.2653080094       13.4627105138
 Zn         7.8223590603       14.8140868106       14.7872897205
 Br         9.1317473709       13.5150193320       13.4634962149
 Zn         7.8435692139        3.8844300809        3.8541145907
 Br         9.1131489579        2.5411085395        2.5260543694
 Zn        18.7223387734       14.6653228510        3.8923040043
 Br        20.0468645140       13.3660460836        2.5725074237
 Zn        18.7430415744        3.8472272161       14.6970164584
 Br        20.0692376538        2.5268033415       13.4000850697
 Zn         5.8281165962        6.0531625197       16.8135695250
 Zn        16.6093624315       16.7607500755       16.7818214273
 Zn        16.6605355692        5.8871258194        5.9079238836
 Zn         5.7951888837       16.8260938559        6.0135239495
 Zn         5.8329939821        5.9983568389        5.9527414382
 Zn        16.6258082661       16.7152229305        5.9563398114
 Zn         5.7802219407       16.8789288241       16.8459303519
 Zn        16.6562098052        5.9220798454       16.7456995525
  N         3.6414391564        6.0487883941       16.7628876641
  N        14.4709598457        5.8587116245        5.9082390937
  N        18.7929245905       16.7385772987       16.7537021503
  N         7.9887338842       16.8244408279        6.0173496991
  N        18.8389434233        5.9036969063        5.9264388500
  N         8.0120098318        6.0251367407       16.8426164486
  N         3.6161178503       16.8244683930        6.0004236768
  N        14.4201317201       16.7886904464       16.8219146892
  N        16.6738641597        3.7069349516        5.9083338205
  N        16.5923168361       14.5674140726       16.7915901549
  N        16.6303241234       18.9408008552       16.7813807612
  N        16.6454818263        8.0790718431        5.8983465260
  N         5.7917690163       19.0057235350        6.0057670438
  N         5.7981469444        8.2316065682       16.8587465741
  N         5.8389792342        3.8644858893       16.7679116269
  N         5.7795587155       14.6328227165        6.0248071485
  N         5.8219672332       16.8135068045        3.8350016754
  N         5.8622769062        6.0991518176       14.6056780486
  N        16.6385633038       16.7595054511       18.9665329160
  N        16.6614884667        5.8800254736        8.1048483740
  N         5.7797011144        6.0071558399       18.9801604098
  N         5.7848844778       16.8460387516        8.2001497514
  N        16.6643152049        5.8847734460        3.7341288240
  N        16.5852163967       16.7608892749       14.6005737983
  N         5.8036795507        3.8144279882        5.9725502032
  N         5.7583399958       14.6847017697       16.8515005425
  N        16.6237442395       18.8993648638        5.9664046427
  N        16.6352163991        8.1135731610       16.7561212127
  N         5.7817194930       19.0557450474       16.8398531140
  N         5.8418106491        8.1816049112        5.9206990961
  N        16.6566096764        3.7468022078       16.7543846514
  N        16.6471786193       14.5313313651        5.9512858018
  N         3.5989640517       16.8842475784       16.8561880642
  N        14.4394900643       16.7083431659        5.9392965974
  N        18.8092859357       16.7231118463        5.9775665938
  N         7.9679448656       16.8729916981       16.8538881238
  N        18.8341606078        5.9347247361       16.7516542009
  N         8.0187914236        5.9472983852        5.8985849244
  N         3.6458220422        6.0357067312        6.0183433738
  N        14.4622190943        5.8934129829       16.7297433796
  N        16.6441640775        5.9294557105       18.9276161984
  N        16.6107804301       16.7186610885        8.1491691415
  N        16.6401226825       16.7220653451        3.7758564489
  N        16.6823951761        5.9145800357       14.5574263252
  N         5.7731376880        5.9690637231        3.7830041915
  N         5.7700995852       16.8831645631       14.6531676298
  N         5.7853533227       16.8775493032       19.0282256713
  N         5.8883388230        6.0199615438        8.1507080897
  C        11.1745942860       15.7676009237       15.7897425491
  H        11.1577662048       14.9889986269       15.0175340962
  C        11.2317164136        4.8367280033        4.8461249046
  H        11.2215578978        4.0671398509        4.0648155208
  C         0.4136472003       15.7188651806        4.9295466490
  H         0.4336324829       14.9472590538        4.1504005090
  C         0.4381351797        4.9454558756       15.6831196029
  H         0.4557720482        4.1732743159       14.9046044653
  C        11.2392005850        6.9738811735       15.6864724165
  H        11.2404961647        7.7362274049       14.8985252661
  C        11.2208633126       17.8315602368        4.9341956901
  H        11.2266106690       18.6187832484        4.1706372333
  C         0.4152450632        7.0358843251        4.9270140738
  H         0.4106769663        7.8078921433        4.1479087846
  C         0.3686711398       17.8711415086       15.7481688026
  H         0.3617312776       18.6465326254       14.9725631810
  C        11.2073992029       15.6835670718        7.0154507831
  H        11.2021512978       14.8964236812        7.7790637801
  C        11.2338886705        4.9069736656       17.8470240076
  H        11.2321610832        4.1489644292       18.6395367761
  C         0.3830879862       15.7600064614       17.8679715422
  H         0.3902264713       14.9872464228       18.6462274692
  C         0.4277698882        4.9318334635        7.0535895136
  H         0.4319894790        4.1610265009        7.8337013632
  C        11.2580357004        6.9365564156        6.9746817697
  H        11.2679335709        7.7092441509        7.7525958295
  C        11.2135886144       17.8926899004       17.8935290495
  H        11.2305683388       18.6718488557       18.6650897910
  C         0.3966617601        7.0523014399       17.8070252948
  H         0.3791239087        7.8241880576       18.5860799663
  C         0.3719693569       17.8247947248        7.0546907624
  H         0.3527443107       18.5978478113        7.8324270539
  C        15.5314956902       11.3390070809       15.7323069553
  H        14.7467571849       11.3378060994       14.9662416769
  C        15.5976933315        0.4818411526        4.8744118948
  H        14.8232971878        0.4803581159        4.0977306200
  C         4.7491312194       11.4138306513        4.9246339718
  H         3.9747117940       11.4210515788        4.1481338083
  C         4.7586299978        0.6367096405       15.7362116077
  H         3.9868299490        0.6320007529       14.9571060578
  C        15.5827351314       11.2971821278        6.9785671584
  H        14.8058092754       11.2900371122        7.7525918600
  C        15.5852696203        0.5329914952       17.8226313033
  H        14.8115294252        0.5406753501       18.5999370422
  C         4.7168606638       11.4520391705       17.9115017746
  H         3.9440485768       11.4473694490       18.6896530160
  C         4.7356087227        0.5969953979        7.0501127543
  H         3.9643707792        0.6010829184        7.8298941977
  C         6.8249338096       11.4639613108       15.7916747530
  H         7.6020630847       11.4686304468       15.0182715745
  C         6.8370770304        0.5826632148        4.9210244652
  H         7.6059701986        0.5787324778        4.1389608910
  C        17.7029555838       11.3138203099        4.8694325577
  H        18.4805372573       11.3201064809        4.0960873841
  C        17.6947232994        0.5150115200       15.6999501666
  H        18.4670586048        0.5069843110       14.9212779316
  C         6.8611942794       11.4000870432        7.0414744932
  H         7.6385729160       11.3922726157        7.8147762275
  C         6.8598753004        0.6427502582       17.8652504426
  H         7.6292513938        0.6484636323       18.6469050913
  C        17.6735815644       11.3416642975       17.8184969842
  H        18.4592645115       11.3425296677       18.5836370710
  C        17.7074040597        0.4846674784        6.9960271133
  H        18.4798699666        0.4854682327        7.7745439247
  C        15.5255185907       15.6855673367       11.3779089455
  H        14.7447671857       14.9155169020       11.3799132414
  C        15.6038041730        4.8432339127        0.5068526201
  H        14.8307334634        4.0653106699        0.5023309844
  C         4.7478857673       15.7891763523        0.6070559261
  H         3.9693590893       15.0166449531        0.6027139273
  C         4.8270470017        5.0156886895       11.3868942857
  H         4.0515751668        4.2399763365       11.3962165244
  C         6.8469975951       15.8184725086       11.4351463403
  H         7.6252187242       15.0457928459       11.4441410654
  C         6.8174075170        4.9176161390        0.5560727867
  H         7.5915340717        4.1406396285        0.5522870850
  C        17.6969814264       15.6790291939        0.5446726255
  H        18.4699323974       14.9010330574        0.5389392110
  C        17.7213771248        4.8333497513       11.3337270571
  H        18.4903003146        4.0513988426       11.3343480786
  C        15.6258947672        6.9671772818       11.3289832315
  H        14.8574332216        7.7496096073       11.3278049072
  C        15.5882103074       17.8006593185        0.5578796171
  H        14.8155484164       18.5790698826        0.5633595069
  C         4.7016651175        7.0353292572        0.5665355940
  H         3.9269747603        7.8117418078        0.5705896508
  C         4.7258491094       17.9262091238       11.4176169887
  H         3.9487593420       18.7000441952       11.4095195455
  C         6.9389522973        7.1309182786       11.3683588257
  H         7.7141137469        7.9058056907       11.3562668307
  C         6.8703046046       17.8985290844        0.6163762893
  H         7.6479969126       18.6718534031        0.6215208415
  C        17.7112622595        6.9675757466        0.5152832153
  H        18.4827758594        7.7471450637        0.5193963859
  C        17.6546291133       17.7861800533       11.3724879348
  H        18.4360357041       18.5558460884       11.3699895141
 Xe        11.1822012165       11.3388601479       11.3842642684
