     409
 i =      56, E =    -5133.8526959827
  N         2.8206109863        5.2132746553       15.9704422877
  C         1.5030159112        5.5003771331       16.2272312496
  N        13.5965596751        5.1233846343        5.0737754858
  C        12.2774432298        5.3567278536        5.3773630005
  N        19.6436153501       17.6314499539       16.0337984142
  C        20.9606829588       17.3475898218       16.2973392951
  N         8.7668993294       17.5383214457        5.2168132905
  C        10.0856728952       17.2661698018        5.4811047280
  N        19.4533119667        5.2498153920        6.7921018147
  C        20.7762372709        5.5037455387        6.5218238737
  N         8.6780604292        5.1675757816       17.5673526762
  C         9.9987931777        5.4037921034       17.2818608118
  N         2.9073503733       17.5353533803        6.7842029499
  C         1.5884750127       17.2794456767        6.5076204416
  N        13.7813321165       17.6326439540       17.6023088694
  C        12.4647517621       17.3496040990       17.3368233689
  N        15.7912464303        3.0358292718        5.1837791991
  C        16.0833336491        1.7259422264        5.4663202792
  N        15.9802281842       13.9222026889       16.0276193865
  C        16.2470450457       12.6050115985       16.2998760613
  N        15.9363508388       19.7864756658       17.5826356653
  C        16.1715366558       21.1042691073       17.2850471040
  N        15.8373577395        8.9106321894        6.6707793379
  C        16.1402833746       10.2290782442        6.4420773053
  N         6.5914457452       19.6957076344        5.2168513231
  C         6.2840853635       21.0093557298        5.4659825684
  N         6.6101960312        8.8887629956       16.0008935616
  C         6.3644910371       10.2112943555       16.2780437507
  N         6.5270002562        3.0511885770       17.5722122710
  C         6.2839419547        1.7305527017       17.3001011408
  N         6.5977992309       13.8112356046        6.7400098638
  C         6.3169277923       12.4967232796        6.4620229681
  N         5.0522704014       16.0047618244        3.0438370247
  C         5.3294227593       16.2819538733        1.7282853266
  N         4.9680013930        5.1705901498       13.8381337570
  C         5.2232955366        5.4424587198       12.5179474461
  N        17.4875909783       16.0729111173       19.7503899050
  C        17.1970358501       16.3248873958       21.0667508599
  N        17.1861920515        5.3275786725        8.8801858842
  C        16.9188171868        5.6199227389       10.1946058108
  N         4.9657312886        6.7716443014       19.6916377457
  C         5.2150189427        6.4916673399       21.0118872181
  N         5.0854149576       17.5236074744        8.9217502003
  C         5.3760669058       17.2639397596       10.2363781527
  N        17.3794805054        6.7046522372        3.0177106239
  C        17.1243220706        6.4330063314        1.7003111561
  N        17.4878084430       17.6295176677       13.8738626230
  C        17.2040252538       17.3558057208       12.5592095937
  N         4.9101337749        2.9946675735        6.7109748376
  C         5.2052478768        1.6785400481        6.4548344008
  N         5.1113523007       13.8626667701       17.5671388727
  C         5.3705639792       12.5437591653       17.2934353007
  N        17.4223112785       19.7495319496        6.7655594454
  C        17.1313743282       21.0641769131        6.4956040215
  N        17.4261340645        8.9565866349       17.6494671132
  C        17.1996598814       10.2763905366       17.3510809405
  N         5.0929165170       19.7098793163       16.0102735543
  C         5.3314994551       21.0318473864       16.2832237415
  N         4.9776875587        8.8754727748        5.1745988549
  C         5.2696010375       10.1891720935        5.4438506439
  N        17.3341396782        3.1213962215       15.9240959856
  C        17.1074980325        1.7968804331       16.2115351486
  N        17.4551894238       13.8741739653        5.2109754245
  C        17.1828916510       12.5546694362        5.4671211264
  N         2.9522433113       16.0164350572       17.5654974480
  C         1.6363947809       16.3024723711       17.3030305374
  N        13.7329996879       15.9843917853        6.7566329504
  C        12.4124648571       16.2443528658        6.4849663001
  N        19.5855777152       16.0307192308        5.2026313723
  C        20.9034120936       16.2910234620        5.4784759570
  N         8.8366141374       16.0264304921       16.0536026730
  C        10.1512577839       16.3082273479       16.3272435571
  N        19.5158219471        6.7954894862       17.5263496449
  C        20.8285532162        6.5229195095       17.2419476405
  N         8.6493781075        6.6126172991        6.7286769919
  C         9.9613628916        6.3280973244        6.4492193141
  N         2.7829710537        6.7484112473        5.2003937138
  C         1.4648611900        6.4917240950        5.4820094337
  N        13.6464076825        6.6735410316       16.0062173961
  C        12.3277582399        6.3804060697       16.2473102029
  N        15.8557804195        5.1775858475       19.6980921090
  C        16.1263995276        5.4324584664       21.0156849118
  N        15.8851934558       16.0497308772        8.9334049178
  C        16.1621460892       16.3287747567       10.2491238446
  N        15.8645219552       17.5653537214        3.0639401203
  C        16.1469372832       17.3088957630        1.7461365970
  N        15.6735821451        6.9611636948       13.8394918882
  C        15.9260732453        6.6739658143       12.5193893096
  N         6.4518131872        5.1584193880        3.0080216536
  C         6.1929476998        5.4442634645        1.6932201664
  N         6.7016790000       16.0069165889       13.8734978947
  C         6.4231007114       16.2681901953       12.5543541551
  N         6.6429947291       17.5813334480       19.7393760509
  C         6.3624463516       17.3085152450       21.0554056474
  N         6.4897784200        6.7107573279        8.8677563600
  C         6.2199332513        6.4519779460       10.1873600156
  N        19.5901801660       17.5835596778        6.7624567560
  C        20.9071968174       17.3027448190        6.4981732131
  N         8.8194287380       17.5974367175       17.5949351681
  C        10.1411982879       17.3341410528       17.3327659630
  N         2.7777515685        5.1968608906        6.7616874602
  C         1.4602056794        5.4828043889        6.5046182075
  N        13.6388900490        5.1885999054       17.6251985101
  C        12.3222684814        5.4137198589       17.3083034446
  N         2.9609739174       17.5642272813       16.0038583386
  C         1.6420178491       17.3141281601       16.2837475080
  N        13.7228915934       17.5663742288        5.2284851004
  C        12.4070664163       17.2787330113        5.4882717062
  N        19.4943277630        5.2790670850       15.9329334049
  C        20.8181665807        5.5267251434       16.2070889053
  N         8.6296059266        5.1065163275        5.1260101061
  C         9.9520434980        5.3482375455        5.4014424734
  N         6.6379522088       19.7383419698       17.5758354416
  C         6.3414856277       21.0510197020       17.3044325845
  N         6.5581565513        8.8509853496        6.7060407965
  C         6.2989525060       10.1735998865        6.4459015043
  N         6.4558982613        3.0051387410        5.1459606898
  C         6.2150239749        1.6872448197        5.4335718711
  N         6.6926444429       13.8529274165       16.0366482159
  C         6.4032478299       12.5357302193       16.2951089455
  N        15.8145505214        3.0932526417       17.5145339895
  C        16.1123863888        1.7824187622       17.2474474123
  N        15.9313134940       13.8643434168        6.7970062359
  C        16.1896181829       12.5491338598        6.5027510759
  N        15.8748234016       19.7249772910        5.2014585295
  C        16.1245189122       21.0460167036        5.4713777528
  N        15.9067439147        8.9689138077       16.0628701059
  C        16.2061746392       10.2846983821       16.3147419624
  N        17.4130941837        6.7317152277       19.7132988959
  C        17.1419582189        6.4475498568       21.0258709075
  N        17.4464748030       17.6002702002        8.9172591137
  C        17.1823907574       17.3400518755       10.2375420197
  N         4.9151448646        6.7319941558        3.0139473608
  C         5.1894978813        6.4718106841        1.6942691768
  N         5.1358467857       17.5528786460       13.8715264985
  C         5.4016682225       17.2780930562       12.5552850855
  N        17.4273766121       16.0179819227        3.0624828607
  C        17.1663834461       16.2974140640        1.7459358363
  N        17.2258076795        5.3923756470       13.8346153613
  C        16.9381906106        5.6537145676       12.5182670532
  N         5.0919413826       16.0195881319       19.7256199031
  C         5.3490811858       16.2902743529       21.0458120412
  N         4.9458883144        5.1428579541        8.8801037983
  C         5.2129498664        5.4276094073       10.1958288028
  N        17.4745330673       19.7959381897       16.0090023947
  C        17.1736505886       21.1128830511       16.2559741211
  N        17.3645663556        8.9178547567        5.0926086505
  C        17.1375864629       10.2333776290        5.4095727291
  N         4.9757080998        3.0257565261       16.0122038011
  C         5.2717315003        1.7122744923       16.2813846550
  N         5.0339836037       13.8334521384        5.1917841193
  C         5.2941003523       12.5116157759        5.4535454839
  N        17.3117255444        3.0746961075        6.7735441517
  C        17.0798452815        1.7484659234        6.5008811915
  N        17.5072266690       13.9172707755       17.6088920522
  C        17.2408918452       12.5993833157       17.3345442596
  N         5.0417665705       19.6790461503        6.7771954481
  C         5.2726098219       20.9986056316        6.4856143203
  N         5.0242947558        8.9090276575       17.5271684635
  C         5.3298734787       10.2227941870       17.2749035389
  N        19.4718083266        6.7691294008        5.2024684468
  C        20.7849808271        6.5004784682        5.4877064854
  N         8.6927043737        6.6450644474       15.9369447384
  C        10.0066241529        6.3648829393       16.2164668868
  N         2.8271720533        6.7727352211       17.5229870397
  C         1.5087468334        6.5131439302       17.2458354864
  N        13.5975400459        6.6334319795        6.6698612605
  C        12.2804501245        6.3407477130        6.4228074308
  N         2.9001147366       15.9991272123        5.2096116533
  C         1.5839111048       16.2740208741        5.4818956988
  N        13.7921140771       16.0567467874       16.0675987917
  C        12.4726224369       16.3215883983       16.3336141054
  N        19.6380698082       16.0778857308       17.5940498911
  C        20.9560906460       16.3341723969       17.3156189140
  N         8.7719610539       15.9489430241        6.7383933279
  C        10.0893641599       16.2290656107        6.4749451884
  N         6.6107711020       17.5577351325        3.0593720813
  C         6.3458964544       17.2969145258        1.7384626559
  N         6.5046703378        6.7449885825       13.8243084522
  C         6.2275383558        6.4694347326       12.5088150809
  N         6.5053231453        5.2016565451       19.7026418597
  C         6.2196742922        5.4655589501       21.0163994241
  N         6.6443580076       15.9703542082        8.9106796616
  C         6.3947434577       16.2512205227       10.2309893084
  N        15.9313487584       17.6280296922       19.7478123638
  C        16.1801186349       17.3393370637       21.0656761675
  N        15.6250114343        6.8861912505        8.8640437738
  C        15.9033500388        6.6363224505       10.1855548005
  N        15.8269767051        5.1448230781        3.0035732674
  C        16.1106836917        5.4156604039        1.6904491292
  N        15.9229872566       16.0837958744       13.8927818663
  C        16.1823333781       16.3462998891       12.5716522552
 Zn        14.6598355365       14.7787833893       14.7699773784
 Br        13.3277015114       13.4970097227       13.4425611419
 Zn        14.5161123633        3.8402803596        3.8308745360
 Br        13.2555565288        2.4906716561        2.5024750275
 Zn         3.7507490117       14.7160879746        3.8997161767
 Br         2.4246926605       13.4235794353        2.5752314356
 Zn         3.6807137031        3.8842148206       14.7147405789
 Br         2.3517984841        2.5630340113       13.4195134001
 Zn         7.8478939255        7.9907262099       14.6793705141
 Br         9.1632994628        9.2770069907       13.3358002903
 Zn         7.9011992420       18.8396699687        3.9383335151
 Br         9.2146697072       20.1642636187        2.6318254248
 Zn        18.6620564157        8.0238729604        3.8446859429
 Br        20.0029673911        9.3135210239        2.5355071608
 Zn        18.7798158346       18.9260052029       14.7328808409
 Br        20.0961999840       20.2416070932       13.4205470328
 Zn         7.9045347848       14.6572678446        8.0280513201
 Br         9.2104451246       13.3242526887        9.3364305804
 Zn         7.8075915021        3.9059054956       18.8753909202
 Br         9.1288024967        2.6016570513       20.1930467447
 Zn        18.7871180171       14.7831192229       18.8958469342
 Br        20.1003783146       13.4653615973       20.2093859526
 Zn        18.5289159975        4.0061290564        8.0831458394
 Br        19.8233830597        2.7156025525        9.4410596727
 Zn        14.3843187911        8.1042836040        7.8010555546
 Br        12.7613221082        9.7084158447        7.9856144073
 Zn        14.6512877857       18.9298191756       18.8848561121
 Br        13.3274328415       20.2307892352       20.2032812305
 Zn         3.6975926679        8.0691314193       18.8075960876
 Br         2.4034409123        9.4112347960       20.1137915972
 Zn         3.7762310073       18.8140718151        8.0832266295
 Br         2.4649790809       20.1257638995        9.4041480398
 Zn        14.6182868248       14.7284146620        8.0660798714
 Br        13.2879826112       13.4630909010        9.4100604965
 Zn        14.5417994474        3.8936016787       18.8682284303
 Br        13.2556652792        2.5486921008       20.1765578703
 Zn         3.8108160591       14.7206482617       18.8543169860
 Br         2.4879394471       13.4112718343       20.1649054825
 Zn         3.6343385159        3.8636293475        8.0167556544
 Br         2.3118306527        2.5594221302        9.3346085890
 Zn         7.8256361010        7.9525237653        7.9995764528
 Br         9.1410173806        9.2394429880        9.3428867136
 Zn         7.9324483073       18.8842788571       18.8790176178
 Br         9.2270713520       20.2116261664       20.2005983696
 Zn        18.7126176542        8.0482842904       18.8931166689
 Br        20.0596742776        9.3105265350       20.2221656694
 Zn        18.7298898164       18.8898573421        8.0463974260
 Br        20.0506422962       20.2199752525        9.3407903086
 Zn        14.4399922989        8.1785435500       14.9256267450
 Br        12.8025676729        9.7885593399       14.9075582752
 Zn        14.5700745259       18.8535798107        3.9278943654
 Br        13.2431481073       20.1507927471        2.6095059128
 Zn         3.6507017042        8.0347590339        3.8986926274
 Br         2.3505357006        9.3752606481        2.5964857581
 Zn         3.8276706110       18.8386549577       14.7078836514
 Br         2.5125950753       20.1483636444       13.3867231138
 Zn         7.9961936231       14.7212322763       14.7580256710
 Br         9.3112365582       13.4063896998       13.4419257876
 Zn         7.7390263696        3.8447816817        3.8360823845
 Br         9.0428363028        2.5267841470        2.5140856095
 Zn        18.7290429042       14.7319075700        3.9083202310
 Br        20.0379677600       13.4099508170        2.5959628945
 Zn        18.5596931803        4.0583397388       14.6231088581
 Br        19.8497410053        2.7640401351       13.2642236032
 Zn         5.7554418392        5.9639024070       16.7661403320
 Zn        16.7210412336       16.8621962703       16.8224692918
 Zn        16.5189218382        5.9901862283        5.9031891403
 Zn         5.8383672474       16.7567810817        5.9909095843
 Zn         5.7068483232        5.9313233721        5.9437858316
 Zn        16.6627499939       16.8034435334        5.9971658012
 Zn         5.8979339246       16.7874805438       16.8044958276
 Zn        16.5632587237        6.0460180874       16.8104361396
  N         3.5703217323        5.9851494537       16.7518820513
  N        14.3425575842        5.8991205622        5.8551112549
  N        18.8950072110       16.8608298340       16.8180699395
  N         8.0228026113       16.7415761146        5.9779259317
  N        18.7152183682        6.0127637374        5.9908321087
  N         7.9386537554        5.9192047342       16.7566705257
  N         3.6506951267       16.7627844535        5.9978603239
  N        14.5335352233       16.8501713046       16.8342426708
  N        16.5358175322        3.8016648243        5.9750393167
  N        16.7425399239       14.6675043506       16.8206396163
  N        16.7224911296       19.0450718153       16.8088979913
  N        16.5771430168        8.1685552980        5.8578208409
  N         5.8362289364       18.9407218147        6.0086842505
  N         5.7998295278        8.1527378894       16.7566609277
  N         5.7390116349        3.7850171538       16.7935962026
  N         5.8217998450       14.5689910134        5.9702047816
  N         5.8287822001       16.7768907721        3.7984804975
  N         5.7429565238        5.9578236653       14.5778952670
  N        16.7205511407       16.8601809307       19.0026252529
  N        16.4060884282        6.0928903721        8.1242556333
  N         5.7456081618        5.9905970806       18.9499892453
  N         5.8534849332       16.7412316211        8.1699031651
  N        16.5948868146        5.9266128584        3.7562088870
  N        16.7115490981       16.8588206771       14.6302551622
  N         5.6708705914        3.7466426326        5.9202284004
  N         5.9095915361       14.6044116026       16.8057528341
  N        16.6587731137       18.9906508191        5.9840162509
  N        16.6433629735        8.2173482356       16.8699725583
  N         5.8796526008       18.9773011455       16.7917888419
  N         5.7577232647        8.1167595231        5.9387009218
  N        16.5565211314        3.8539383412       16.7162326520
  N        16.6960019163       14.6163420827        6.0113254409
  N         3.7040778289       16.7814847394       16.7799749509
  N        14.4746642372       16.7836963118        5.9959566334
  N        18.8415282684       16.8118790954        5.9795705774
  N         8.0815959984       16.8067132998       16.8211159599
  N        18.7581062898        6.0438362236       16.7343902691
  N         7.8922924319        5.8718781203        5.9259504068
  N         3.5264137274        5.9638890135        5.9744256067
  N        14.3879882594        5.9550641672       16.8382989187
  N        16.6325006803        5.9633262514       18.9596456027
  N        16.6634486185       16.8201194802        8.1790288364
  N        16.6413066407       16.7860800256        3.8104113779
  N        16.4619246040        6.1790238168       14.5849460865
  N         5.6804730784        5.9385711726        3.7579878109
  N         5.9208898785       16.7837217520       14.6191788050
  N         5.8736494350       16.8004164075       18.9861634007
  N         5.7193414050        5.9200363872        8.1274276931
  C        11.3164930565       15.7591450195       15.7875528185
  H        11.3233269810       14.9760185264       15.0198744516
  C        11.1109899635        4.8150663037        4.8275459243
  H        11.1043458999        4.0634316177        4.0293811870
  C         0.4205918020       15.7361239906        4.9271040514
  H         0.4161085260       14.9654658464        4.1466963064
  C         0.3388734473        4.9711399325       15.6610887902
  H         0.3392428112        4.2029483384       14.8786445598
  C        11.1698526135        6.8804372445       15.6469568826
  H        11.1675566904        7.6297442861       14.8495799777
  C        11.2448783798       17.8319537902        4.9453423643
  H        11.2434915922       18.6220327783        4.1846400851
  C         0.3061789440        7.0410718514        4.9306335692
  H         0.3060337044        7.8078871664        4.1462577657
  C         0.4856912658       17.8798693321       15.7401124366
  H         0.4927381111       18.6543384553       14.9636413960
  C        11.2523150535       15.6749270795        7.0168247702
  H        11.2538363050       14.8846924587        7.7771520624
  C        11.1564040395        4.8798635178       17.8646725585
  H        11.1495984242        4.1415723169       18.6750497813
  C         0.4720347015       15.7709226053       17.8614413139
  H         0.4657400110       14.9983182507       18.6398953732
  C         0.2971080225        4.9526312766        7.0714047223
  H         0.2975739457        4.1863107823        7.8557655323
  C        11.1228338255        6.8537955957        7.0104058925
  H        11.1219861586        7.6161073572        7.7958008014
  C        11.2982789502       17.8967615538       17.8788173343
  H        11.2921491620       18.6795424271       18.6469714812
  C         0.3505833718        7.0627842501       17.7981084622
  H         0.3511072437        7.8299417710       18.5821777623
  C         0.4308685080       17.8369871612        7.0564889802
  H         0.4354177082       18.6082943350        7.8361453426
  C        15.6975281507       11.4520192464       15.7413002418
  H        14.9230557595       11.4674758907       14.9680025119
  C        15.5622317544        0.5550115979        4.9118520922
  H        14.7966647750        0.5393062363        4.1264292435
  C         4.7276034646       11.3585831577        4.9044026939
  H         3.9446800798       11.3699099071        4.1364227413
  C         4.7538380904        0.5382932100       15.7306391685
  H         3.9809163734        0.5165594055       14.9528748030
  C        15.6341535080       11.3873585851        7.0372210539
  H        14.8590165971       11.3873162086        7.8103489010
  C        15.6003249127        0.6181956697       17.8236342883
  H        14.8364295729        0.6117235212       18.6108928336
  C         4.7927591458       11.3887517922       17.8249021066
  H         4.0044030094       11.3967986018       18.5872899543
  C         4.6902981653        0.5105470723        7.0215182812
  H         3.9183315418        0.4969633500        7.8003945484
  C         6.9443102243       11.3681711086       15.7485209214
  H         7.7326606561       11.3618917715       14.9861593066
  C         6.7953767556        0.5364129597        4.8956723290
  H         7.5666797480        0.5500841555        4.1159927952
  C        17.7032384464       11.3970950677        4.8821048326
  H        18.4645529247       11.4020844118        4.0931241860
  C        17.6800949695        0.6397280566       15.6746760576
  H        18.4434063597        0.6454670099       14.8875205100
  C         6.8633234070       11.3271267641        6.9971206744
  H         7.6457390260       11.3166627609        7.7654651081
  C         6.8600765723        0.5848085873       17.8543814825
  H         7.6322638614        0.6076383187       18.6329541161
  C        17.7630463464       11.4324385971       17.8995921254
  H        18.5234526275       11.4240064914       18.6894292344
  C        17.6477787664        0.5970853391        7.0546148432
  H        18.4129555911        0.6118961176        7.8399179913
  C        15.6187842404       15.7923115961       11.4190041954
  H        14.8374520405       15.0228735140       11.4330266452
  C        15.5695487835        4.8705543132        0.5256441208
  H        14.7941088502        4.0948721571        0.5138043285
  C         4.7890958328       15.7376355583        0.5606167578
  H         4.0132341612       14.9625254676        0.5505375602
  C         4.6722203975        4.8819196739       11.3627560107
  H         3.9033718900        4.1000015667       11.3716881076
  C         6.9622402174       15.7140280212       11.3900253196
  H         7.7406095324       14.9416511875       11.3858513510
  C         6.7496068169        4.8980447707        0.5359038571
  H         7.5167216021        4.1141237535        0.5375985635
  C        17.7316012537       15.7609160157        0.5870612541
  H        18.5082168548       14.9864134586        0.5885571812
  C        17.4746151034        5.0876600370       11.3597107074
  H        18.2492393599        4.3096874186       11.3652385088
  C        15.3701659192        7.2015195621       11.3490293375
  H        14.5984473035        7.9782512884       11.3427298792
  C        15.6108136745       17.8711818750        0.5852656265
  H        14.8327498940       18.6440327098        0.5843242691
  C         4.6583354816        7.0378592978        0.5319070397
  H         3.8928181683        7.8230806254        0.5296145996
  C         4.8378126595       17.8196822703       11.3983946956
  H         4.0586183222       18.5917275527       11.4024791236
  C         6.7660223355        7.0174423248       11.3423501398
  H         7.5349632530        7.7994471448       11.3330694037
  C         6.9018152591       17.8537315636        0.5834235310
  H         7.6758507956       18.6306873713        0.5934305048
  C        17.6855643552        6.9903096995        0.5504446689
  H        18.4595132629        7.7674491760        0.5617957283
  C        17.7449830584       17.8951836864       11.3898469313
  H        18.5243156137       18.6667266382       11.3762824410
 Xe        12.4841498337       10.3520070074       11.4396814581
