     409
 i =      56, E =    -5133.8819223624
  N         3.0052715069        5.2260666833       16.0543113732
  C         1.6854218252        5.4912213730       16.3158260167
  N        13.7772667596        5.2040025675        5.2040026511
  C        12.4614838349        5.4800962703        5.4800959654
  N        19.7141038675       17.5764781424       16.0200398953
  C        21.0319082885       17.3192829306       16.3034416707
  N         8.8645700706       17.6125381344        5.2314009258
  C        10.1819719450       17.3308594361        5.4915342649
  N        19.6429900700        5.2000187488        6.7560732347
  C        20.9605265984        5.4860825514        6.5017632856
  N         8.8645679531        5.2313924264       17.6125309392
  C        10.1819702620        5.4915306864       17.3308566630
  N         2.9914955954       17.6030764545        6.7876339576
  C         1.6759808609       17.3285395149        6.5096066859
  N        13.8607277943       17.5776039712       17.5775788016
  C        12.5418585247       17.3120406070       17.3120398810
  N        15.9282752129        3.0397250984        5.1960582412
  C        16.2056465822        1.7226498969        5.4646012394
  N        16.0023943589       13.8643943957       16.0159007305
  C        16.2678712370       12.5461783143       16.2862400468
  N        16.0093853534       19.7250151155       17.5725962573
  C        16.2707094217       21.0430540215       17.2982513517
  N        15.9454210489        8.9101723913        6.7549832996
  C        16.2205339269       10.2269051888        6.4849690596
  N         6.7011811746       19.7708866062        5.2453638821
  C         6.4188329165       21.0866082709        5.5129691359
  N         6.7154659061        8.9403713245       16.0550738772
  C         6.4504507023       10.2589865388       16.3255006397
  N         6.7147753885        3.0837572104       17.6243630059
  C         6.4536739403        1.7645915755       17.3517646181
  N         6.7017143557       13.8998413559        6.7919192889
  C         6.4205747809       12.5829942382        6.5284178396
  N         5.1619998504       16.0651697612        3.0766489133
  C         5.4388345711       16.3352146458        1.7602697339
  N         5.1473958642        5.2352797381       13.9050220416
  C         5.4050075037        5.5126747395       12.5866814758
  N        17.5596653751       16.0120065884       19.7293215200
  C        17.2834195784       16.2798212451       21.0464996196
  N        17.4945590891        5.1937584178        8.9046066903
  C        17.2328443251        5.4662150782       10.2230553650
  N         5.1420130262        6.7983330981       19.7602865312
  C         5.4020250756        6.5276250843       21.0802482592
  N         5.1545617109       17.6058187935        8.9454236459
  C         5.4326378699       17.3391069941       10.2623944909
  N        17.4868214174        6.7495285074        3.0453412715
  C        17.2226199314        6.4790262127        1.7271145485
  N        17.5597481463       17.5703363303       13.8600816428
  C        17.2842704897       17.3012423032       12.5430501500
  N         5.1082526069        3.0802721153        6.7958355746
  C         5.3841807890        1.7628456238        6.5264960628
  N         5.1786889559       13.9023774656       17.6109827365
  C         5.4442578365       12.5838349043       17.3411261152
  N        17.5200528508       19.7306684096        6.7462807965
  C        17.2399903289       21.0465317791        6.4776723124
  N        17.5313588783        8.9034828357       17.5780975972
  C        17.2699003455       10.2218963182       17.3045359127
  N         5.1919335944       19.7611750681       16.0579272961
  C         5.4549664347       21.0791705522       16.3317228981
  N         5.1171957767        8.9492462075        5.2440281035
  C         5.3901879606       10.2658282156        5.5166870589
  N        17.5330173017        3.0469011934       16.0078896749
  C        17.2691333516        1.7279955801       16.2778194042
  N        17.5274364114       13.8606273835        5.2024981171
  C        17.2489521261       12.5439690758        5.4697317775
  N         3.0311402532       16.0619057330       17.6174212920
  C         1.7134778042       16.3243925869       17.3399725995
  N        13.8197038436       16.0191369229        6.7568919708
  C        12.5022322422       16.2963707873        6.4926320263
  N        19.6887833970       16.0211173568        5.2028129520
  C        21.0042965536       16.2989150482        5.4783147293
  N         8.8932303980       16.0430499567       16.0430286524
  C        10.2131911973       16.3073686341       16.3073601185
  N        19.6754097331        6.7555443680       17.5806228388
  C        20.9950214596        6.4930639745       17.3156000244
  N         8.8320637580        6.7832515734        6.7832504215
  C        10.1480550451        6.5078744876        6.5078734297
  N         2.9600817527        6.8021930703        5.2459225847
  C         1.6422144685        6.5251071984        5.5092859090
  N        13.8197031507        6.7568797307       16.0191321525
  C        12.5022313999        6.4926279585       16.2963701787
  N        15.9658839995        5.1890437468       19.7215615670
  C        16.2246739008        5.4617563874       21.0408901995
  N        15.9776785856       16.0204853095        8.9085477573
  C        16.2549269548       16.2882918698       10.2252659362
  N        15.9766617104       17.5635438768        3.0400781621
  C        16.2541338544       17.2942461920        1.7237427345
  N        15.9710819282        6.7583539171       13.8664533019
  C        16.2339764765        6.4862449327       12.5479738448
  N         6.6613200318        5.2375057016        3.0855096772
  C         6.3986720371        5.5096823623        1.7673800369
  N         6.7323697220       16.0536463626       13.8972780065
  C         6.4593086022       16.3249183503       12.5803762397
  N         6.7521723325       17.6095950164       19.7642998179
  C         6.4727482086       17.3454128458       21.0820776127
  N         6.6760974237        6.7960009792        8.9430682791
  C         6.4075459995        6.5305431475       10.2617794799
  N        19.6754080283       17.5806344143        6.7555333069
  C        20.9950231930       17.3156013270        6.4930611527
  N         8.9051163949       17.5983934647       17.5983720202
  C        10.2209608119       17.3230541858       17.3230454605
  N         2.9600816132        5.2459213479        6.8021940501
  C         1.6422153522        5.5092850509        6.5251077948
  N        13.8207494995        5.1978194717       17.5713294035
  C        12.5030105874        5.4761096175       17.3110738035
  N         3.0311391699       17.6174228976       16.0619047278
  C         1.7134789078       17.3399715672       16.3243939266
  N        13.8207499902       17.5713354238        5.1978303555
  C        12.5030135095       17.3110740207        5.4761140885
  N        19.6887841842        5.2028234656       16.0211061428
  C        21.0042990523        5.4783188310       16.2989156598
  N         8.8203137878        5.2281360875        5.2281353315
  C        10.1399453400        5.4923331298        5.4923323526
  N         6.7521776057       19.7643004799       17.6095877430
  C         6.4727492256       21.0820769728       17.3454118104
  N         6.6760973281        8.9430676287        6.7960012409
  C         6.4075451872       10.2617775430        6.5305425544
  N         6.6613209918        3.0855087611        5.2375058325
  C         6.3986727423        1.7673782078        5.5096824055
  N         6.7323625090       13.8972789894       16.0536373573
  C         6.4593085461       12.5803758008       16.3249171988
  N        15.9766496253        3.0400767748       17.5635338642
  C        16.2541238394        1.7237346751       17.2942451225
  N        15.9710789682       13.8664522123        6.7583522097
  C        16.2339743848       12.5479698647        6.4862436180
  N        15.9658839538       19.7215589307        5.1890455537
  C        16.2246733020       21.0408836969        5.4617572168
  N        15.9776936129        8.9085494945       16.0204680549
  C        16.2549433733       10.2252608471       16.2882856600
  N        17.5200509291        6.7462781848       19.7306715550
  C        17.2399907743        6.4776718852       21.0465342811
  N        17.5313408080       17.5781124993        8.9034816737
  C        17.2698909220       17.3045494959       10.2219008530
  N         5.1082518556        6.7958348876        3.0802732513
  C         5.3841797084        6.5264962414        1.7628454920
  N         5.1786958889       17.6109926768       13.9023759105
  C         5.4442584406       17.3411269959       12.5838341232
  N        17.5330323440       16.0078970518        3.0469026256
  C        17.2691396431       16.2778243297        1.7280001399
  N        17.5274397569        5.2025003225       13.8606296316
  C        17.2489531072        5.4697344771       12.5439708769
  N         5.1919285567       16.0579346793       19.7611733384
  C         5.4549656787       16.3317238814       21.0791682702
  N         5.1171962848        5.2440280330        8.9492473743
  C         5.3901882485        5.5166869185       10.2658299067
  N        17.5596521353       19.7293162819       16.0119921842
  C        17.2834161898       21.0464987007       16.2798170752
  N        17.4945564657        8.9046043682        5.1937575449
  C        17.2328413222       10.2230536631        5.4662113548
  N         5.1620051730        3.0766492383       16.0651658823
  C         5.4388365802        1.7602715023       16.3352140172
  N         5.1473967645       13.9050217679        5.2352786918
  C         5.4050064245       12.5866804456        5.5126746329
  N        17.4868212076        3.0453377440        6.7495295698
  C        17.2226190398        1.7271105253        6.4790271925
  N        17.5597685947       13.8600751973       17.5703211978
  C        17.2842771295       12.5430530074       17.3012325302
  N         5.1420122896       19.7602857794        6.7983331070
  C         5.4020248099       21.0802483299        6.5276236380
  N         5.1545551256        8.9454248518       17.6058119346
  C         5.4326370517       10.2623951412       17.3391061457
  N        19.6429901383        6.7560718073        5.2000210021
  C        20.9605254946        6.5017625884        5.4860836891
  N         8.8633754591        6.7801673060       16.0498274115
  C        10.1811686701        6.5040730519       16.3120625010
  N         2.9914956751        6.7876454642       17.6030681760
  C         1.6759817601        6.5096135243       17.3285347370
  N        13.7898425305        6.7605126170        6.7605124972
  C        12.4699033916        6.4959169618        6.4959164596
  N         3.0052718789       16.0543206180        5.2260574059
  C         1.6854191788       16.3158288995        5.4912135009
  N        13.8507043703       16.0215014665       16.0214764881
  C        12.5346987551       16.2963963699       16.2963958036
  N        19.7141056149       16.0200410767       17.5764773312
  C        21.0319037735       16.3034392441       17.3192854294
  N         8.8633756305       16.0498353014        6.7801748298
  C        10.1811700447       16.3120653636        6.5040763348
  N         6.7147693136       17.6243662126        3.0837565256
  C         6.4536715464       17.3517650839        1.7645929260
  N         6.7017137000        6.7919214156       13.8998416151
  C         6.4205757267        6.5284182688       12.5829955682
  N         6.7011822635        5.2453634520       19.7708870931
  C         6.4188337850        5.5129700509       21.0866111700
  N         6.7154721217       16.0550813803        8.9403700846
  C         6.4504516450       16.3255014771       10.2589863946
  N        16.0093973218       17.5726113517       19.7250202737
  C        16.2707158973       17.2982522289       21.0430612901
  N        15.9454231455        6.7549851109        8.9101746181
  C        16.2205374663        6.4849724159       10.2269076916
  N        15.9282753662        5.1960570130        3.0397287380
  C        16.2056479705        5.4646005844        1.7226555741
  N        16.0023789795       16.0159209778       13.8643998826
  C        16.2678575707       16.2862425859       12.5461811800
 Zn        14.7091872834       14.7251938566       14.7251929467
 Br        13.3837562863       13.4164264581       13.4164262511
 Zn        14.6323112247        3.9053653559        3.9053679338
 Br        13.3096284753        2.5953793109        2.5953791540
 Zn         3.8700910690       14.7688650580        3.9338787769
 Br         2.5539888190       13.4579584696        2.6163284073
 Zn         3.8700920729        3.9338801234       14.7688659821
 Br         2.5539900270        2.6163305975       13.4579595221
 Zn         8.0038114576        8.0735987896       14.7616197724
 Br         9.3151612137        9.3859212426       13.4408692249
 Zn         8.0017204997       18.9202984765        3.9525407368
 Br         9.3172035117       20.2334851879        2.6384282678
 Zn        18.7805487300        8.0429532557        3.9001107258
 Br        20.0986957110        9.3524954816        2.5841398147
 Zn        18.8516783356       18.8666277806       14.7202145166
 Br        20.1681071691       20.1760530968       13.4026989739
 Zn         8.0038113300       14.7616191569        8.0735970257
 Br         9.3151612569       13.4408694355        9.3859207611
 Zn         8.0017190310        3.9525414680       18.9203005926
 Br         9.3172046346        2.6384295468       20.2334853342
 Zn        18.8516850915       14.7202127197       18.8666374600
 Br        20.1681146942       13.4026944142       20.1760587028
 Zn        18.7805482761        3.9001097537        8.0429533516
 Br        20.0986968643        2.5841405042        9.3524953099
 Zn        14.6575670535        8.0532240605        8.0532252473
 Br        13.3483620291        9.3703805633        9.3703795321
 Zn        14.7207136152       18.8707765625       18.8707799385
 Br        13.4123911824       20.1879354087       20.1879349382
 Zn         3.8487902400        8.0872037887       18.8882434874
 Br         2.5389187057        9.4059318646       20.2037800502
 Zn         3.8487900920       18.8882428819        8.0872022614
 Br         2.5389180099       20.2037795488        9.4059293163
 Zn        14.6793583744       14.7276250814        8.0533708747
 Br        13.3652413321       13.4178215980        9.3718920601
 Zn        14.6773021269        3.8958022000       18.8551102163
 Br        13.3641692902        2.5798777792       20.1695714437
 Zn         3.8939761517       14.7684511926       18.9056731512
 Br         2.5800367494       13.4571130579       20.2244105466
 Zn         3.8249357074        3.9499876991        8.0931516733
 Br         2.5096155714        2.6379837318        9.4100056549
 Zn         7.9737982412        8.0754214813        8.0754219098
 Br         9.2958441616        9.3870492868        9.3870487070
 Zn         8.0520699708       18.8920730792       18.8920747344
 Br         9.3714709552       20.2047389665       20.2047371966
 Zn        18.8154426467        8.0431183140       18.8782528407
 Br        20.1318280890        9.3536966016       20.1941120732
 Zn        18.8154434973       18.8782487687        8.0431154655
 Br        20.1318262197       20.1941112387        9.3536926111
 Zn        14.6793536186        8.0533705559       14.7276287130
 Br        13.3652415765        9.3718922930       13.4178218865
 Zn        14.6773024551       18.8551020404        3.8958023829
 Br        13.3641718652       20.1695666477        2.5798801359
 Zn         3.8249347357        8.0931498837        3.9499881971
 Br         2.5096144394        9.4100046276        2.6379844664
 Zn         3.8939767015       18.9056743259       14.7684510660
 Br         2.5800376591       20.2244108297       13.4571129785
 Zn         8.0191127245       14.7570020133       14.7570029790
 Br         9.3247735723       13.4371098322       13.4371081328
 Zn         7.9511702433        3.9423446011        3.9423451474
 Br         9.2563112471        2.6226618268        2.6226612100
 Zn        18.8276508578       14.7196912550        3.9131254690
 Br        20.1411132914       13.4019941223        2.6012828604
 Zn        18.8276504363        3.9131238136       14.7196945197
 Br        20.1411137528        2.6012850277       13.4019947837
 Zn         5.9359618739        6.0102083495       16.8330759371
 Zn        16.7828518250       16.7898528438       16.7898367030
 Zn        16.7125680766        5.9691427332        5.9691465763
 Zn         5.9359628837       16.8330777729        6.0102080603
 Zn         5.8906244874        6.0134460935        6.0134470863
 Zn        16.7559761093       16.7902648188        5.9705899852
 Zn         5.9630862437       16.8304953543       16.8304914963
 Zn        16.7559740608        5.9705888718       16.7902676889
  N         3.7454536869        6.0098388140       16.8316697558
  N        14.5298511976        5.9794193683        5.9794210095
  N        18.9677702856       16.7911294796       16.7911346148
  N         8.1173410453       16.8359886413        6.0100807423
  N        18.8963584050        5.9694630792        5.9694640356
  N         8.1173392869        6.0100864774       16.8359929097
  N         3.7454510840       16.8316649005        6.0098419869
  N        14.6023406438       16.7972887155       16.7973061663
  N        16.7046387947        3.7890310305        5.9734356375
  N        16.7833617714       14.6088001448       16.7927172436
  N        16.7882908083       18.9800365658       16.7943121674
  N        16.7167513146        8.1601819157        5.9735944532
  N         5.9273889420       19.0189869352        6.0227868341
  N         5.9316624013        8.1962393854       16.8293080183
  N         5.9345688413        3.8268502653       16.8452957370
  N         5.9309942197       14.6492427689        6.0095101865
  N         5.9345719849       16.8452920727        3.8268493911
  N         5.9309955188        6.0095101378       14.6492439790
  N        16.7882841678       16.7943022136       18.9800386773
  N        16.7167510458        5.9735932541        8.1601834769
  N         5.9273896999        6.0227887571       19.0189874758
  N         5.9316572392       16.8293032543        8.1962393396
  N        16.7046395331        5.9734340190        3.7890354628
  N        16.7833701043       16.7927020731       14.6087975903
  N         5.8818889017        3.8296588988        6.0157227425
  N         5.9574125312       14.6466536888       16.8318558459
  N        16.7485102041       18.9791621541        5.9662826021
  N        16.7507101533        8.1590310567       16.8008158240
  N         5.9759722702       19.0161529246       16.8309435123
  N         5.8958277688        8.1993775437        6.0180315038
  N        16.7516209142        3.7899651235       16.7856060063
  N        16.7532357249       14.6100010727        5.9817899520
  N         3.7780687669       16.8430593811       16.8430578698
  N        14.5671908846       16.7910674852        5.9736275520
  N        18.9356532979       16.7979109435        5.9762644129
  N         8.1523454520       16.8233957267       16.8234047993
  N        18.9356539292        5.9762582776       16.7979212836
  N         8.0790287179        6.0083339444        6.0083340556
  N         3.7064395907        6.0270708431        6.0270724342
  N        14.5671887454        5.9736307070       16.7910759043
  N        16.7485110275        5.9662821026       18.9791667624
  N        16.7507176776       16.8008065412        8.1590361713
  N        16.7516153642       16.7855963109        3.7899718193
  N        16.7532328900        5.9817883232       14.6100035048
  N         5.8818881428        6.0157215026        3.8296594761
  N         5.9574073087       16.8318520733       14.6466531048
  N         5.9759759259       16.8309407701       19.0161517381
  N         5.8958286764        6.0180302778        8.1993791774
  C        11.3688576255       15.7521832114       15.7521684317
  H        11.3613243637       14.9767152470       14.9766978660
  C        11.2950828812        4.9365829741        4.9365821037
  H        11.2861002151        4.1610917385        4.1610910768
  C         0.5316635319       15.7581299827        4.9346481295
  H         0.5431512709       14.9832625955        4.1586659225
  C         0.5316633765        4.9346569672       15.7581225924
  H         0.5431520808        4.1586765033       14.9832562804
  C        11.3407901860        7.0474145762       15.7536737968
  H        11.3394224070        7.8222644720       14.9774968244
  C        11.3434932551       17.8711126178        4.9344667515
  H        11.3449967991       18.6473434806        4.1597124310
  C         0.4813133512        7.0648606410        4.9500054903
  H         0.4810501915        7.8415272443        4.1756807245
  C         0.5527391132       17.8807222714       15.7657880580
  H         0.5532361875       18.6577031228       14.9917598396
  C        11.3407908137       15.7536786369        7.0474225919
  H        11.3394220158       14.9775025379        7.8222727362
  C        11.3434910186        4.9344591230       17.8711071722
  H        11.3449923503        4.1597039344       18.6473378157
  C         0.5527441270       15.7657859613       17.8807240088
  H         0.5532395858       14.9917582007       18.6577042047
  C         0.4813120439        4.9500046641        7.0648607454
  H         0.4810498068        4.1756793941        7.8415274477
  C        11.3144351596        7.0514716124        7.0514702154
  H        11.3226422600        7.8269614524        7.8269599127
  C        11.3864616505       17.8673017195       17.8672865942
  H        11.3945707382       18.6428240148       18.6428062820
  C         0.5088384980        7.0516439219       17.8713663371
  H         0.4976900495        7.8277696886       18.6462773047
  C         0.5088349131       17.8713721122        7.0516317508
  H         0.4976881410       18.6462864396        7.8277590423
  C        15.7118800777       11.3882054190       15.7372644630
  H        14.9359636584       11.3920593364       14.9621698016
  C        15.6643470046        0.5580911982        4.9145824659
  H        14.8874163750        0.5519715091        4.1405548052
  C         4.8460031444       11.4287035099        4.9666852197
  H         4.0703888980       11.4324085098        4.1912743681
  C         4.8961251866        0.5968332962       15.7849962096
  H         4.1189325245        0.5918621393       15.0111365018
  C        15.6784017377       11.3902013460        7.0363051604
  H        14.9044744989       11.3944658302        7.8133753375
  C        15.7131191489        0.5605272074       17.8464492591
  H        14.9383873347        0.5555968852       18.6227540107
  C         4.8889723378       11.4253414820       17.8900364995
  H         4.1135142060       11.4290094713       18.6655649259
  C         4.8429623662        0.5977295239        7.0760870228
  H         4.0670025697        0.5914511164        7.8511068414
  C         7.0052385802       11.4174762020       15.7760756340
  H         7.7807169627       11.4141221063       15.0005235725
  C         6.9574933400        0.6108074013        4.9608207578
  H         7.7316787478        0.6174390981        4.1839925196
  C        17.7893261148       11.3806047702        4.9167920788
  H        18.5631548539       11.3759115559        4.1396192810
  C        17.8242407545        0.5700045325       15.7273075564
  H        18.5972690418        0.5747661980       14.9493571701
  C         6.9630342485       11.4198300836        7.0800814611
  H         7.7399890812       11.4159041688        7.8540925879
  C         7.0126157080        0.6062097267       17.8982798838
  H         7.7880877092        0.6113208943       18.6737295778
  C        17.8274779097       11.3799287856       17.8520204471
  H        18.6035204668       11.3759241519       18.6270059296
  C        17.7807386855        0.5704422147        7.0283895277
  H        18.5562207221        0.5764963324        7.8039225712
  C        15.7118660845       15.7372870919       11.3882072261
  H        14.9359393842       14.9621854382       11.3920605478
  C        15.6643472939        4.9145811653        0.5580935019
  H        14.8874169071        4.1405535035        0.5519763157
  C         4.8961207411       15.7849983413        0.5968335104
  H         4.1189283069       15.0111394207        0.5918606714
  C         4.8460043496        4.9666863832       11.4287048169
  H         4.0703896666        4.1912747894       11.4324104178
  C         7.0052427375       15.7760795751       11.4174750150
  H         7.7807213175       15.0005284816       11.4141219701
  C         6.9574926691        4.9608217640        0.6108065558
  H         7.7316786639        4.1839925971        0.6174398363
  C        17.8242564498       15.7273131375        0.5700112626
  H        18.5972814053       14.9493682213        0.5747703463
  C        17.7893304038        4.9167958437       11.3806072775
  H        18.5631584376        4.1396238690       11.3759141827
  C        15.6784050080        7.0363098507       11.3902013398
  H        14.9044791037        7.8133787253       11.3944673322
  C        15.7131283875       17.8464609244        0.5605305485
  H        14.9384013593       18.6227628303        0.5556036670
  C         4.8429621622        7.0760873729        0.5977317586
  H         4.0670018215        7.8511071662        0.5914523441
  C         4.8889764945       17.8900405171       11.4253407030
  H         4.1135186970       18.6655696524       11.4290086834
  C         6.9630341133        7.0800819106       11.4198303815
  H         7.7399893094        7.8540934021       11.4159050440
  C         7.0126119128       17.8982833399        0.6062076335
  H         7.7880830718       18.6737334284        0.6113209049
  C        17.7807396717        7.0283896241        0.5704474792
  H        18.5562210539        7.8039222279        0.5765009123
  C        17.8274512803       17.8520308200       11.3799353135
  H        18.6035012685       18.6270272465       11.3759278714
 Xe         3.3342226107        9.6552156861        9.6552151806
