     409
 i =      56, E =    -5133.8788367916
  N         3.0248248916        5.2175958955       16.0439108383
  C         1.7057251333        5.4853601517       16.3080674463
  N        13.8171935592        5.2043680498        5.2043694152
  C        12.5010749595        5.4788100810        5.4788121529
  N        19.7282740922       17.5762833832       16.0200970383
  C        21.0457880261       17.3142924692       16.2985349288
  N         8.8863729505       17.5973882843        5.2243868655
  C        10.2042331981       17.3199375590        5.4869190421
  N        19.6803653137        5.2007917958        6.7567385427
  C        20.9976541475        5.4823412172        6.4980245639
  N         8.8863728699        5.2243900239       17.5973896130
  C        10.2042331529        5.4869221151       17.3199391573
  N         3.0162176939       17.5948642285        6.7778782218
  C         1.6996826521       17.3216156637        6.5031063686
  N        13.8715325878       17.5778448372       17.5778445579
  C        12.5528994882       17.3111987585       17.3111971673
  N        15.9677802101        3.0434515833        5.1979361194
  C        16.2419252442        1.7260963162        5.4669864684
  N        16.0169203393       13.8671343318       16.0180411802
  C        16.2838829903       12.5490385188       16.2878158163
  N        16.0224068868       19.7260535818       17.5737036118
  C        16.2866257016       21.0440216268       17.3010843861
  N        15.9823728301        8.9098468672        6.7550843009
  C        16.2546582438       10.2270043359        6.4849623746
  N         6.7268404891       19.7573212672        5.2306272537
  C         6.4489413896       21.0741897656        5.4977801492
  N         6.7339839852        8.9312305842       16.0416495851
  C         6.4686441655       10.2496474893       16.3125732792
  N         6.7358752728        3.0715873506       17.6066689730
  C         6.4726401650        1.7525946791       17.3356583142
  N         6.7245487568       13.8884986643        6.7768235074
  C         6.4495381643       12.5713446280        6.5090974152
  N         5.1808173796       16.0512126548        3.0656308484
  C         5.4565683454       16.3205148876        1.7490333681
  N         5.1711115029        5.2192779495       13.8918467219
  C         5.4345392925        5.4927949735       12.5734696112
  N        17.5752265765       16.0150765357       19.7294299815
  C        17.3005870164       16.2837814612       21.0466291521
  N        17.5326120919        5.1946424512        8.9070740801
  C        17.2673383363        5.4664883246       10.2250744633
  N         5.1684947684        6.7834176537       19.7519666205
  C         5.4318261771        6.5120453803       21.0708829605
  N         5.1771671526       17.5961805403        8.9350876655
  C         5.4525591792       17.3278905635       10.2523116372
  N        17.5258955246        6.7521051317        3.0462709628
  C        17.2584252863        6.4819204640        1.7284934281
  N        17.5743956729       17.5727590451       13.8634124169
  C        17.3000724711       17.3030705721       12.5464150947
  N         5.1458143605        3.0705372752        6.7791819979
  C         5.4200257039        1.7529500177        6.5101368398
  N         5.1948132091       13.8924232602       17.5985272531
  C         5.4611854387       12.5739173567       17.3286355009
  N        17.5433844385       19.7313731484        6.7508811930
  C        17.2678989286       21.0479217563        6.4814272127
  N        17.5519017900        8.9072092594       17.5780994895
  C        17.2891004872       10.2254542374       17.3051705553
  N         5.2019565023       19.7500714787       16.0464494787
  C         5.4676204733       21.0680889896       16.3181844396
  N         5.1536306909        8.9344661188        5.2259764417
  C         5.4262301180       10.2518638537        5.4959811245
  N        17.5552928072        3.0465019708       16.0122361824
  C        17.2902985861        1.7279407839       16.2825599234
  N        17.5509905920       13.8630836533        5.2011815429
  C        17.2764875093       12.5459301127        5.4693779406
  N         3.0440915562       16.0479082773       17.6026397112
  C         1.7265014723       16.3122128924       17.3277075608
  N        13.8441143986       16.0185135915        6.7571494694
  C        12.5261887037       16.2929761056        6.4912577063
  N        19.7077388663       16.0217832521        5.2032598931
  C        21.0240636303       16.2969554418        5.4773096803
  N         8.9078892213       16.0372611819       16.0372589565
  C        10.2268322068       16.3034180790       16.3034158690
  N        19.6985604985        6.7574171446       17.5802452146
  C        21.0178713668        6.4925362069       17.3132902574
  N         8.8688174823        6.7761711537        6.7761731634
  C        10.1854476299        6.5027295123        6.5027321306
  N         2.9957320504        6.7869993698        5.2320401653
  C         1.6781138578        6.5134994361        5.4979403695
  N        13.8441148984        6.7571488340       16.0185133321
  C        12.5261890452        6.4912582648       16.2929764257
  N        15.9909401364        5.1926755296       19.7259939162
  C        16.2534271874        5.4647375785       21.0446956896
  N        15.9997939983       16.0196693332        8.9112442034
  C        16.2748359006       16.2883039400       10.2281814239
  N        16.0001669245       17.5684563974        3.0414778810
  C        16.2754027381       17.2989813979        1.7247659965
  N        15.9970675285        6.7586288027       13.8658065724
  C        16.2624400143        6.4866313976       12.5478221909
  N         6.7035357192        5.2251621415        3.0735739097
  C         6.4367963455        5.4954714405        1.7554865496
  N         6.7504957011       16.0425369934       13.8881979297
  C         6.4767724087       16.3127959799       12.5711316479
  N         6.7620003797       17.5983796109       19.7531373707
  C         6.4854967594       17.3318391096       21.0706730619
  N         6.7119378613        6.7795308474        8.9318659130
  C         6.4430504970        6.5106665022       10.2500436365
  N        19.6985606679       17.5802453857        6.7574177859
  C        21.0178714664       17.3132908468        6.4925361044
  N         8.9157643731       17.5927388172       17.5927359002
  C        10.2321029785       17.3190685584       17.3190656176
  N         2.9957321734        5.2320370574        6.7869968617
  C         1.6781138447        5.4979380768        6.5134977991
  N        13.8437115737        5.1985463930       17.5726845878
  C        12.5260026101        5.4749111195       17.3082067445
  N         3.0440912748       17.6026412163       16.0479098438
  C         1.7265012892       17.3277083399       16.3122142600
  N        13.8437117128       17.5726823627        5.1985446698
  C        12.5260026509       17.3082046301        5.4749088280
  N        19.7077390395        5.2032571842       16.0217850720
  C        21.0240637775        5.4773083067       16.2969562820
  N         8.8611458547        5.2210844868        5.2210853555
  C        10.1799995398        5.4871818504        5.4871837376
  N         6.7620000223       19.7531385910       17.5983801503
  C         6.4854963814       21.0706744040       17.3318400505
  N         6.7119397446        8.9318661542        6.7795295913
  C         6.4430524094       10.2500439447        6.5106654097
  N         6.7035359277        3.0735741785        5.2251606967
  C         6.4367976081        1.7554867163        5.4954706117
  N         6.7504970534       13.8881990750       16.0425344410
  C         6.4767743686       12.5711326583       16.3127940093
  N        16.0001652390        3.0414773426       17.5684571639
  C        16.2754010873        1.7247653949       17.2989822040
  N        15.9970658407       13.8658063799        6.7586294416
  C        16.2624371309       12.5478219467        6.4866308332
  N        15.9909397448       19.7259928068        5.1926760542
  C        16.2534264192       21.0446946630        5.4647382883
  N        15.9997951043        8.9112430703       16.0196682871
  C        16.2748372568       10.2281803082       16.2883026087
  N        17.5433849447        6.7508805842       19.7313740497
  C        17.2678997661        6.4814264026       21.0479227475
  N        17.5519013509       17.5780998991        8.9072103914
  C        17.2890995400       17.3051714822       10.2254553982
  N         5.1458115776        6.7791808470        3.0705375283
  C         5.4200226928        6.5101359381        1.7529500940
  N         5.1948113860       17.5985291973       13.8924223664
  C         5.4611831389       17.3286371091       12.5739163596
  N        17.5552943731       16.0122354907        3.0465026404
  C        17.2903001489       16.2825590772        1.7279413866
  N        17.5509925508        5.2011811543       13.8630838583
  C        17.2764905256        5.4693786254       12.5459302309
  N         5.2019574863       16.0464482825       19.7500699224
  C         5.4676214027       16.3181829703       21.0680874600
  N         5.1536293808        5.2259770952        8.9344657078
  C         5.4262287025        5.4959816754       10.2518635190
  N        17.5752259125       19.7294294004       16.0150777121
  C        17.3005859991       21.0466285139       16.2837824995
  N        17.5326092002        8.9070740075        5.1946409368
  C        17.2673347952       10.2250743749        5.4664865607
  N         5.1808167945        3.0656323138       16.0512143974
  C         5.4565677130        1.7490348785       16.3205167208
  N         5.1711116805       13.8918470145        5.2192782966
  C         5.4345401585       12.5734699833        5.4927949962
  N        17.5258942277        3.0462699632        6.7521066737
  C        17.2584240816        1.7284924651        6.4819218628
  N        17.5743959653       13.8634111788       17.5727591557
  C        17.3000733051       12.5464139472       17.3030698996
  N         5.1684973427       19.7519666710        6.7834177927
  C         5.4318291659       21.0708829490        6.5120458182
  N         5.1771691568        8.9350887646       17.5961802483
  C         5.4525614550       10.2523126421       17.3278899175
  N        19.6803652305        6.7567410993        5.2007945330
  C        20.9976542008        6.4980262437        5.4823432311
  N         8.8862111039        6.7752785182       16.0371421816
  C        10.2042000681        6.5004822624       16.3021254060
  N         3.0162175210        6.7778812540       17.5948619379
  C         1.6996825601        6.5031083900       17.3216140119
  N        13.8265502265        6.7606063228        6.7606089197
  C        12.5071206489        6.4945731237        6.4945759531
  N         3.0248247344       16.0439108791        5.2175950425
  C         1.7057249987       16.3080675439        5.4853596064
  N        13.8641787816       16.0220951087       16.0220962458
  C        12.5477818606       16.2955653298       16.2955647520
  N        19.7282743783       16.0200947499       17.5762829764
  C        21.0457882141       16.2985331704       17.3142921742
  N         8.8862107967       16.0371436393        6.7752781140
  C        10.2041998097       16.3021256759        6.5004811098
  N         6.7358747368       17.6066683901        3.0715858277
  C         6.4726400478       17.3356572558        1.7525932008
  N         6.7245476744        6.7768239138       13.8884980478
  C         6.4495366988        6.5090979528       12.5713441286
  N         6.7268398373        5.2306291088       19.7573212841
  C         6.4489398873        5.4977812088       21.0741897225
  N         6.7339827000       16.0416506934        8.9312299715
  C         6.4686423643       16.3125743809       10.2496467334
  N        16.0224072922       17.5737022809       19.7260543164
  C        16.2866266316       17.3010832941       21.0440223246
  N        15.9823757115        6.7550858602        8.9098472564
  C        16.2546617462        6.4849640757       10.2270046715
  N        15.9677808535        5.1979352072        3.0434524520
  C        16.2419261423        5.4669854902        1.7260972836
  N        16.0169194001       16.0180417802       13.8671353368
  C        16.2838817069       16.2878169700       12.5490395638
 Zn        14.7205539027       14.7266364744       14.7266370563
 Br        13.4007618143       13.4152934125       13.4152937445
 Zn        14.6705339095        3.9067380924        3.9067386146
 Br        13.3516916246        2.5950231048        2.5950236017
 Zn         3.8892067580       14.7592779381        3.9215913401
 Br         2.5736198207       13.4452155177        2.6066353272
 Zn         3.8892066548        3.9215917324       14.7592784368
 Br         2.5736196819        2.6066349700       13.4452167938
 Zn         8.0193906501        8.0657047220       14.7475809239
 Br         9.3342334559        9.3774056915       13.4290965787
 Zn         8.0219381379       18.8959401752        3.9423204521
 Br         9.3374694104       20.2120163418        2.6285455696
 Zn        18.8223936599        8.0460782725        3.9011610992
 Br        20.1387341862        9.3564942477        2.5854128091
 Zn        18.8696538519       18.8684636887       14.7220020082
 Br        20.1840272003       20.1800776565       13.4056070158
 Zn         8.0193905774       14.7475832898        8.0657047396
 Br         9.3342340295       13.4290993410        9.3774055132
 Zn         8.0219382650        3.9423223907       18.8959407482
 Br         9.3374696642        2.6285484400       20.2120176171
 Zn        18.8696541732       14.7220006837       18.8684640249
 Br        20.1840267974       13.4056057563       20.1800788247
 Zn        18.8223939597        3.9011603969        8.0460778769
 Br        20.1387345683        2.5854126130        9.3564943645
 Zn        14.6947160529        8.0531849689        8.0531857052
 Br        13.3825142210        9.3689014251        9.3689025794
 Zn        14.7309455534       18.8709075179       18.8709085935
 Br        13.4206489662       20.1870128497       20.1870137932
 Zn         3.8802643742        8.0723720565       18.8835265216
 Br         2.5662884297        9.3912109555       20.1957385580
 Zn         3.8802642270       18.8835275064        8.0723702467
 Br         2.5662883555       20.1957400002        9.3912088026
 Zn        14.7079392009       14.7259326644        8.0534617924
 Br        13.3907290793       13.4155253074        9.3691606485
 Zn        14.7061443009        3.8983838278       18.8614810601
 Br        13.3889954699        2.5837019001       20.1734191095
 Zn         3.9040055042       14.7578397484       18.8902148701
 Br         2.5926764479       13.4435306063       20.2088995883
 Zn         3.8550528360        3.9377809783        8.0722463214
 Br         2.5448425367        2.6226397935        9.3911965611
 Zn         8.0071618006        8.0671831171        8.0671832920
 Br         9.3260268338        9.3799017818        9.3799018146
 Zn         8.0580844836       18.8859831849       18.8859827056
 Br         9.3754589245       20.1993253301       20.1993246102
 Zn        18.8342600979        8.0472209350       18.8767342960
 Br        20.1525933492        9.3574434912       20.1918330108
 Zn        18.8342600360       18.8767342200        8.0472217028
 Br        20.1525931230       20.1918337442        9.3574435743
 Zn        14.7079399138        8.0534607204       14.7259321864
 Br        13.3907295967        9.3691592219       13.4155246587
 Zn        14.7061449067       18.8614793336        3.8983835048
 Br        13.3889963668       20.1734170061        2.5837008247
 Zn         3.8550523132        8.0722469988        3.9377820117
 Br         2.5448415880        9.3911970480        2.6226410845
 Zn         3.9040046062       18.8902164248       14.7578407185
 Br         2.5926751396       20.2089011839       13.4435319528
 Zn         8.0437218185       14.7485512828       14.7485477333
 Br         9.3496011581       13.4294867910       13.4294833862
 Zn         7.9975791431        3.9339271366        3.9339259226
 Br         9.3033410971        2.6146138109        2.6146125282
 Zn        18.8470367850       14.7221988168        3.9106683139
 Br        20.1632570736       13.4060816011        2.5997471435
 Zn        18.8470366122        3.9106663694       14.7221997796
 Br        20.1632567909        2.5997442156       13.4060834722
 Zn         5.9523755323        6.0031697529       16.8233903760
 Zn        16.8014255671       16.7929969904       16.7929990127
 Zn        16.7535304937        5.9718782420        5.9718790591
 Zn         5.9523754496       16.8233905869        6.0031687781
 Zn         5.9314366925        6.0041905237        6.0041904501
 Zn        16.7727666041       16.7933303068        5.9736212791
 Zn         5.9824088853       16.8226594268       16.8226586960
 Zn        16.7727665886        5.9736192165       16.7933312876
  N         3.7672607656        5.9993340893       16.8215646057
  N        14.5683596756        5.9803757273        5.9803774160
  N        18.9818917726       16.7937243045       16.7937253579
  N         8.1395271620       16.8205603205        6.0030518430
  N        18.9338044193        5.9728471677        5.9728472429
  N         8.1395273045        6.0030533653       16.8205598637
  N         3.7672607823       16.8215658663        5.9993319066
  N        14.6147413675       16.7983382264       16.7983395325
  N        16.7453669059        3.7913397925        5.9753795295
  N        16.7974421219       14.6117870713       16.7952466097
  N        16.8014679789       18.9808149205       16.7956534340
  N        16.7560198780        8.1613799670        5.9746246609
  N         5.9514525388       19.0079658673        6.0083215200
  N         5.9529834710        8.1865406181       16.8180857338
  N         5.9551789772        3.8155468328       16.8293506216
  N         5.9509319871       14.6370025447        5.9965205757
  N         5.9551789326       16.8293496370        3.8155453865
  N         5.9509316349        5.9965205106       14.6370020961
  N        16.8014683278       16.7956520587       18.9808156465
  N        16.7560223382        5.9746259500        8.1613802153
  N         5.9514513570        6.0083227280       19.0079658971
  N         5.9529820769       16.8180864567        8.1865397110
  N        16.7453677670        5.9753783148        3.7913407314
  N        16.7974417787       16.7952464472       14.6117882239
  N         5.9232493082        3.8187236616        6.0018881468
  N         5.9745480323       14.6370290936       16.8205038108
  N        16.7705887113       18.9816542856        5.9708503637
  N        16.7728424013        8.1621515572       16.8000583903
  N         5.9846511425       19.0051067082       16.8209301776
  N         5.9318672739        8.1866664348        6.0024959908
  N        16.7752062283        3.7906782032       16.7901254948
  N        16.7763876265       14.6111185422        5.9810589835
  N         3.7914389833       16.8277473872       16.8277472889
  N        14.5903080942       16.7931266583        5.9751650975
  N        18.9566751553       16.7990945641        5.9782066348
  N         8.1651188793       16.8168181748       16.8168157113
  N        18.9566751428        5.9782043940       16.7990957809
  N         8.1179023756        6.0003757716        6.0003766939
  N         3.7427923619        6.0112545359        6.0112547658
  N        14.5903082761        5.9751651319       16.7931274343
  N        16.7705888901        5.9708499161       18.9816552428
  N        16.7728418634       16.8000588599        8.1621527513
  N        16.7752077718       16.7901247861        3.7906788407
  N        16.7763886933        5.9810577483       14.6111187900
  N         5.9232482163        6.0018884257        3.8187236509
  N         5.9745468016       16.8205062525       14.6370281087
  N         5.9846517943       16.8209295036       19.0051053157
  N         5.9318658147        6.0024969202        8.1866661454
  C        11.3836704912       15.7496654068       15.7496643241
  H        11.3780204217       14.9741499566       14.9741495666
  C        11.3366468755        4.9332581452        4.9332598875
  H        11.3304432028        4.1577463452        4.1577474650
  C         0.5492513015       15.7531989219        4.9315126000
  H         0.5567605673       14.9781862360        4.1556040196
  C         0.5492516020        4.9315114015       15.7532000768
  H         0.5567612260        4.1556016839       14.9781885237
  C        11.3651937360        7.0448514907       15.7474249927
  H        11.3652294519        7.8198950460       14.9714582376
  C        11.3650216261       17.8638847816        4.9315831081
  H        11.3647419405       18.6399986993        4.1566700554
  C         0.5179492504        7.0570998462        4.9416599392
  H         0.5180647660        7.8331649829        4.1666864011
  C         0.5662715186       17.8716670662       15.7563438146
  H         0.5666320715       18.6480875446       14.9817127185
  C        11.3651931257       15.7474258954        7.0448515889
  H        11.3652283808       14.9714606982        7.8198966944
  C        11.3650213446        4.9315870923       17.8638878933
  H        11.3647411130        4.1566756229       18.6400033897
  C         0.5662719337       15.7563410562       17.8716653522
  H         0.5666328466       14.9817083461       18.6480842244
  C         0.5179492307        4.9416555122        7.0570959289
  H         0.5180646119        4.1666790110        7.8331581032
  C        11.3499921340        7.0483109439        7.0483142919
  H        11.3554298202        7.8237959371        7.8237998708
  C        11.3960669254       17.8649247026       17.8649215858
  H        11.4015321929       18.6404353717       18.6404313794
  C         0.5345021167        7.0479517523       17.8665512429
  H         0.5275582514        7.8239866005       18.6415500110
  C         0.5345024621       17.8665532772        7.0479497886
  H         0.5275589094       18.6415531817        7.8239835080
  C        15.7300145386       11.3905210940       15.7378199672
  H        14.9544408909       11.3934484817       14.9623781355
  C        15.6974329350        0.5632478153        4.9165133563
  H        14.9214357350        0.5596082143        4.1415006628
  C         4.8800414106       11.4138626748        4.9453857518
  H         4.1045039422       11.4156770946        4.1699168253
  C         4.9114081271        0.5865648333       15.7706223994
  H         4.1344164255        0.5833362322       14.9965338108
  C        15.7097329288       11.3887947492        7.0366833566
  H        14.9357947646       11.3910121421        7.8137733572
  C        15.7315795468        0.5623238515       17.8501645747
  H        14.9564753258        0.5589382988       18.6261095473
  C         4.9075621024       11.4149416054       17.8782360392
  H         4.1323683368       11.4176034436       18.6540650983
  C         4.8752653404        0.5896659772        7.0597182957
  H         4.0989909518        0.5858253239        7.8344738334
  C         7.0225641159       11.4085974421       15.7631635074
  H         7.7978258443       11.4058089162       14.9873667686
  C         6.9923987429        0.5970446519        4.9468997143
  H         7.7679002806        0.6007359952        4.1713845805
  C        17.8203777304       11.3840556265        4.9167558626
  H        18.5943063801       11.3818369452        4.1396892941
  C        17.8441010429        0.5693431682       15.7323142123
  H        18.6179854473        0.5728114098       14.9552243180
  C         6.9956864667       11.4095404369        7.0599094435
  H         7.7717792939       11.4079675712        7.8348726434
  C         7.0291807524        0.5937064191       17.8830001826
  H         7.8051607920        0.5973234958       18.6580133947
  C        17.8446717530       11.3838771417       17.8536526437
  H        18.6202183615       11.3805763884       18.6291301684
  C        17.8125396870        0.5702129644        7.0318426582
  H        18.5879381611        0.5735479903        7.8074454801
  C        15.7300127278       15.7378216871       11.3905221702
  H        14.9544385689       14.9623803566       11.3934495101
  C        15.6974336557        4.9165125567        0.5632487585
  H        14.9214363077        4.1415000235        0.5596091192
  C         4.9114094306       15.7706201629        0.5865631914
  H         4.1344184444       14.9965308704        0.5833342570
  C         4.8800405592        4.9453856835       11.4138622911
  H         4.1045036357        4.1699161973       11.4156766752
  C         7.0225624035       15.7631651354       11.4085967637
  H         7.7978244359       14.9873687133       11.4058086971
  C         6.9923981294        4.9469014471        0.5970444677
  H         7.7679009506        4.1713875790        0.6007356188
  C        17.8441023400       15.7323132402        0.5693436947
  H        18.6179866060       14.9552231966        0.5728117491
  C        17.8203812770        4.9167573288       11.3840556494
  H        18.5943099742        4.1396908103       11.3818366801
  C        15.7097363135        7.0366846855       11.3887951618
  H        14.9357980191        7.8137745559       11.3910127402
  C        15.7315808262       17.8501636248        0.5623245668
  H        14.9564764948       18.6261084887        0.5589392543
  C         4.8752612312        7.0597165019        0.5896661424
  H         4.0989854843        7.8344706938        0.5858256539
  C         4.9075594449       17.8782368796       11.4149403664
  H         4.1323653678       18.6540656072       11.4176017981
  C         6.9956844674        7.0599105890       11.4095400300
  H         7.7717769883        7.8348741098       11.4079672511
  C         7.0291806016       17.8829994902        0.5937051552
  H         7.8051602049       18.6580131092        0.5973224365
  C        17.8125409536        7.0318413909        0.5702139595
  H        18.5879396534        7.8074439677        0.5735490915
  C        17.8446709760       17.8536533590       11.3838783479
  H        18.6202178868       18.6291305932       11.3805776913
 Xe         1.6664823253       10.0356235182       10.0356223832
