     409
 i =      96, E =    -5186.5859508611
  N         2.8494880967        5.2044349179       16.0171007152
  C         1.5315169158        5.4765756751       16.2862504209
  N        13.6700023877        5.2104869092        5.2104885265
  C        12.3520592816        5.4798448963        5.4798483367
  N        19.5307856092       17.5768076515       16.0203251195
  C        20.8488168038       17.3033844922       16.2872725193
  N         8.7109688090       17.5756837329        5.2070181048
  C        10.0285636575       17.3042791152        5.4763111117
  N        19.5334550855        5.2064265230        6.7628369158
  C        20.8514133133        5.4770591657        6.4931758220
  N         8.7109674414        5.2070149646       17.5756877008
  C        10.0285618791        5.4763154028       17.3042770122
  N         2.8504162866       17.5737534890        6.7607023246
  C         1.5322937671       17.3024972735        6.4925714394
  N        13.6656606784       17.5752028236       17.5752022799
  C        12.3478989546       17.3050826687       17.3050828900
  N        15.8190612175        3.0521085582        5.2082046993
  C        16.0864550069        1.7339245109        5.4790600704
  N        15.8186781817       13.8686177623       16.0179840425
  C        16.0890021343       12.5512415427       16.2874481849
  N        15.8160244334       19.7338878621       17.5748230969
  C        16.0840008214       21.0518115856       17.3025819657
  N        15.8259174684        8.9150478338        6.7677628232
  C        16.0963737646       10.2322441137        6.4993049310
  N         6.5597580897       19.7328300991        5.2064233890
  C         6.2919210794       21.0507478239        5.4776065653
  N         6.5588571406        8.9131339098       16.0178778090
  C         6.2890009841       10.2303030182       16.2879237774
  N         6.5621790535        3.0492541585       17.5762114839
  C         6.2939463235        1.7315086436       17.3043968955
  N         6.5591988846       13.8669769173        6.7625348632
  C         6.2896245825       12.5497750267        6.4927159881
  N         5.0088329765       16.0185108360        3.0496392394
  C         5.2793164777       16.2871596034        1.7318155009
  N         5.0063519334        5.2047060462       13.8672084669
  C         5.2752540148        5.4752480181       12.5497468218
  N        17.3709909404       16.0178807578       19.7336113430
  C        17.0995064892       16.2860026328       21.0515260745
  N        17.3787422502        5.2093827440        8.9151620275
  C        17.1103541775        5.4813431511       10.2324796162
  N         5.0041951873        6.7620676826       19.7335428257
  C         5.2757521881        6.4933995857       21.0512369186
  N         5.0049913203       17.5751603202        8.9126338458
  C         5.2739614916       17.3047768522       10.2301040606
  N        17.3740168531        6.7643588888        3.0507313694
  C        17.1020466313        6.4953759742        1.7331050649
  N        17.3735899407       17.5743648184       13.8689587483
  C        17.1043983740       17.3040025973       12.5514457166
  N         5.0079120440        3.0497438380        6.7624429776
  C         5.2778631483        1.7319882795        6.4934696717
  N         5.0053871629       13.8673035855       17.5757665672
  C         5.2741456209       12.5498083572       17.3051175492
  N        17.3715427046       19.7341141441        6.7632274413
  C        17.1006012813       21.0520029951        6.4947726252
  N        17.3734297151        8.9142480877       17.5762910913
  C        17.1042814925       10.2315929057       17.3050543463
  N         5.0058768510       19.7331865833       16.0187775583
  C         5.2776133189       21.0509407412       16.2871860675
  N         5.0063874777        8.9127761630        5.2055691086
  C         5.2752689601       10.2302101670        5.4757269673
  N        17.3732041170        3.0506073719       16.0180760956
  C        17.1008049843        1.7328439953       16.2860561008
  N        17.3767444523       13.8695349041        5.2102256601
  C        17.1092724794       12.5520282340        5.4818571373
  N         2.8491475079       16.0172497785       17.5737808124
  C         1.5310478654       16.2856043062       17.3017359811
  N        13.6666066114       16.0164627084        6.7615383257
  C        12.3490497239       16.2864613983        6.4913146176
  N        19.5311368935       16.0208082501        5.2066249581
  C        20.8493703495       16.2884248778        5.4779017410
  N         8.7096191018       16.0187216605       16.0187218348
  C        10.0271463406       16.2888455223       16.2888459316
  N        19.5325737808        6.7627232084       17.5775276813
  C        20.8503345948        6.4938229474       17.3047255617
  N         8.7124592133        6.7631048491        6.7631063452
  C        10.0302433043        6.4939367402        6.4939394191
  N         2.8512288093        6.7609254135        5.2045937716
  C         1.5332718553        6.4921794074        5.4760737676
  N        13.6666039798        6.7615369823       16.0164650828
  C        12.3490549735        6.4913155815       16.2864625795
  N        15.8161233665        5.2069458518       19.7346125714
  C        16.0848726976        5.4784319540       21.0524966730
  N        15.8179290453       16.0200913819        8.9139886396
  C        16.0887200762       16.2885993063       10.2313488851
  N        15.8187444462       17.5750296691        3.0513081285
  C        16.0854741106       17.3026530165        1.7332718467
  N        15.8240061082        6.7683333788       13.8687738443
  C        16.0953090342        6.4998024023       12.5515696442
  N         6.5632141624        5.2068712164        3.0494025770
  C         6.2939371679        5.4776797938        1.7316477894
  N         6.5588519664       16.0184112250       13.8670570933
  C         6.2890531699       16.2881664766       12.5497796287
  N         6.5595531315       17.5764102656       19.7327655838
  C         6.2923758726       17.3043793379       21.0505980236
  N         6.5595456727        6.7632603523        8.9135431650
  C         6.2897617216        6.4930955895       10.2305485432
  N        19.5325764544       17.5775290520        6.7627241585
  C        20.8503411462       17.3047263173        6.4938256282
  N         8.7094582254       17.5750744000       17.5750737246
  C        10.0270568351       17.3048873136       17.3048873505
  N         2.8512283106        5.2045942679        6.7609246093
  C         1.5332749350        5.4760733647        6.4921793872
  N        13.6672024706        5.2069213949       17.5739105244
  C        12.3493885177        5.4760918716       17.3033184006
  N         2.8491477651       17.5737820043       16.0172489077
  C         1.5310464036       17.3017368123       16.2856035167
  N        13.6672034593       17.5739134133        5.2069177519
  C        12.3493887830       17.3033211704        5.4760871631
  N        19.5311341300        5.2066262285       16.0208099562
  C        20.8493643280        5.4779029682       16.2884286539
  N         8.7138193803        5.2069051721        5.2069065800
  C        10.0312480131        5.4778638921        5.4778667918
  N         6.5595489517       19.7327672963       17.5764050038
  C         6.2923748381       21.0505894119       17.3043757767
  N         6.5595477947        8.9135441890        6.7632635319
  C         6.2897552949       10.2305585136        6.4931047837
  N         6.5632190888        3.0494037346        5.2068665533
  C         6.2939383238        1.7316400232        5.4776757802
  N         6.5588496695       13.8670582477       16.0184141470
  C         6.2890593324       12.5497890696       16.2881750658
  N        15.8187410892        3.0513089479       17.5750315131
  C        16.0854739445        1.7332686386       17.3026530530
  N        15.8240097144       13.8687734804        6.7683311285
  C        16.0953095327       12.5515741509        6.4998035079
  N        15.8161267142       19.7346130159        5.2069481295
  C        16.0848726044       21.0524926113        5.4784324440
  N        15.8179247776        8.9139885107       16.0200892358
  C        16.0887194288       10.2313538146       16.2886002844
  N        17.3715436400        6.7632288225       19.7341136846
  C        17.1005999276        6.4947706486       21.0520075606
  N        17.3734299282       17.5762891370        8.9142478903
  C        17.1042840237       17.3050550885       10.2315895641
  N         5.0079159730        6.7624380243        3.0497429953
  C         5.2778649321        6.4934706262        1.7319978105
  N         5.0053835567       17.5757697427       13.8673008932
  C         5.2741355904       17.3051128013       12.5498007369
  N        17.3732030644       16.0180775635        3.0506063126
  C        17.1008064844       16.2860544564        1.7328478026
  N        17.3767448830        5.2102238998       13.8695351548
  C        17.1092701129        5.4818576910       12.5520252380
  N         5.0058720253       16.0187734054       19.7331851646
  C         5.2776113278       16.2871865247       21.0509502701
  N         5.0063923153        5.2055721041        8.9127737876
  C         5.2752803070        5.4757221207       10.2302011551
  N        17.3709894900       19.7336111778       16.0178822356
  C        17.0995053603       21.0515221883       16.2860041662
  N        17.3787447694        8.9151629544        5.2093811792
  C        17.1103567523       10.2324838748        5.4813423274
  N         5.0088252852        3.0496390919       16.0185025078
  C         5.2793167191        1.7318085397       16.2871605224
  N         5.0063576292       13.8672114288        5.2047121468
  C         5.2752460778       12.5497507281        5.4752513193
  N        17.3740182713        3.0507303233        6.7643614276
  C        17.1020476789        1.7331007458        6.4953784606
  N        17.3735876782       13.8689603407       17.5743620943
  C        17.1043959706       12.5514503649       17.3040007271
  N         5.0042034928       19.7335428276        6.7620595753
  C         5.2757521307       21.0512292614        6.4934001654
  N         5.0049842022        8.9126372564       17.5751663933
  C         5.2739677396       10.2301092199       17.3047803567
  N        19.5334554275        6.7628366373        5.2064268674
  C        20.8514114856        6.4931767124        5.4770584998
  N         8.7107831002        6.7621028007       16.0182069966
  C        10.0283680509        6.4916174022       16.2874820661
  N         2.8504125782        6.7607053620       17.5737577128
  C         1.5322904849        6.4925671236       17.3024948343
  N        13.6684727003        6.7664447162        6.7664458642
  C        12.3509879207        6.4958822539        6.4958852908
  N         2.8494918622       16.0171029859        5.2044391249
  C         1.5315193976       16.2862455559        5.4765732678
  N        13.6655557024       16.0191386760       16.0191387169
  C        12.3479133315       16.2890379089       16.2890384651
  N        19.5307855496       16.0203250183       17.5768070866
  C        20.8488173181       16.2872730905       17.3033836362
  N         8.7107863804       16.0182120394        6.7620968284
  C        10.0283635250       16.2874783524        6.4916188087
  N         6.5621732058       17.5762065874        3.0492546286
  C         6.2939496873       17.3043997219        1.7315134344
  N         6.5592025834        6.7625376803       13.8669751670
  C         6.2896264877        6.4927066744       12.5497703864
  N         6.5597627678        5.2064183087       19.7328302376
  C         6.2919175093        5.4776094272       21.0507530316
  N         6.5588539627       16.0178813340        8.9131319644
  C         6.2889997706       16.2879150073       10.2302965658
  N        15.8160223981       17.5748252271       19.7338885195
  C        16.0839991868       17.3025831859       21.0518155027
  N        15.8259187218        6.7677605305        8.9150467889
  C        16.0963740528        6.4993030103       10.2322397289
  N        15.8190635015        5.2082059469        3.0521097972
  C        16.0864568579        5.4790604025        1.7339293799
  N        15.8186766191       16.0179827316       13.8686162595
  C        16.0890016486       16.2874471589       12.5512361060
 Zn        14.5244276527       14.7247491179       14.7247494309
 Cl        13.2944956752       13.4913047467       13.4913038555
 Zn        14.5301592206        3.9159566584        3.9159567214
 Cl        13.2881087747        2.6881418779        2.6881431483
 Zn         3.7178058729       14.7258149578        3.9091316761
 Cl         2.4876212399       13.4909289595        2.6768489054
 Zn         3.7177992478        3.9091304276       14.7258108867
 Cl         2.4876175932        2.6768475371       13.4909260202
 Zn         7.8500737709        8.0557104949       14.7237612430
 Cl         9.0836936465        9.2874204771       13.4920546065
 Zn         7.8492655554       18.8711760569        3.9127194225
 Cl         9.0882567694       20.1031579525        2.6866167069
 Zn        18.6671811850        8.0548809556        3.9122409373
 Cl        19.8971946435        9.2905150793        2.6807850266
 Zn        18.6645876382       18.8703353417       14.7271758262
 Cl        19.8957057539       20.0982398134       13.4891799112
 Zn         7.8500727733       14.7237655847        8.0557067494
 Cl         9.0836937625       13.4920560828        9.2874187118
 Zn         7.8492675837        3.9127161547       18.8711783028
 Cl         9.0882570583        2.6866164907       20.1031591897
 Zn        18.6645881334       14.7271757568       18.8703339355
 Cl        19.8957054383       13.4891801750       20.0982392897
 Zn        18.6671807465        3.9122410974        8.0548821864
 Cl        19.8971938497        2.6807849069        9.2905158732
 Zn        14.5320858620        8.0587090168        8.0587093054
 Cl        13.3095363451        9.2961245600        9.2961243643
 Zn        14.5272204704       18.8700762717       18.8700760819
 Cl        13.2885462757       20.0992726399       20.0992725647
 Zn         3.7147562908        8.0532291719       18.8696844017
 Cl         2.4780284481        9.2899754636       20.0934894661
 Zn         3.7147631529       18.8696821520        8.0532245777
 Cl         2.4780311227       20.0934874090        9.2899712040
 Zn        14.5265143510       14.7241199940        8.0567401014
 Cl        13.2997111014       13.4884114392        9.2912025845
 Zn        14.5285086886        3.9127208396       18.8695352518
 Cl        13.2882179834        2.6790126163       20.0927546969
 Zn         3.7159540127       14.7262931308       18.8705535086
 Cl         2.4825318837       13.4906353779       20.0988139278
 Zn         3.7172519554        3.9104010572        8.0536845131
 Cl         2.4836483348        2.6824559278        9.2895385725
 Zn         7.8509297017        8.0563291604        8.0563299674
 Cl         9.0840772613        9.2883764977        9.2883750619
 Zn         7.8484834988       18.8702309676       18.8702290170
 Cl         9.0889194348       20.0985289108       20.0985287866
 Zn        18.6651486720        8.0541663106       18.8714598900
 Cl        19.8927004092        9.2909609452       20.1041248209
 Zn        18.6651487276       18.8714594246        8.0541651473
 Cl        19.8927013479       20.1041230902        9.2909597448
 Zn        14.5265077827        8.0567394835       14.7241206740
 Cl        13.2997084373        9.2912046105       13.4884090265
 Zn        14.5285131981       18.8695336634        3.9127224205
 Cl        13.2882215090       20.0927524409        2.6790141719
 Zn         3.7172529452        8.0536844380        3.9103971314
 Cl         2.4836472174        9.2895404377        2.6824561834
 Zn         3.7159552670       18.8705563282       14.7262927019
 Cl         2.4825317212       20.0988139622       13.4906326839
 Zn         7.8493670563       14.7240832152       14.7240837317
 Cl         9.0827494433       13.4922963397       13.4922952506
 Zn         7.8509538806        3.9119594093        3.9119584276
 Cl         9.0884266501        2.6821339145        2.6821341269
 Zn        18.6658567828       14.7271361588        3.9133276722
 Cl        19.8991711713       13.4898532591        2.6867899635
 Zn        18.6658566911        3.9133269513       14.7271351287
 Cl        19.8991712401        2.6867882526       13.4898528053
 Zn         5.7837922043        5.9857051899       16.7987230497
 Zn        16.6001889541       16.8005227594       16.8005217686
 Zn        16.6032139084        5.9895556308        5.9895556836
 Zn         5.7837971908       16.7987287171        5.9856995301
 Zn         5.7849931748        5.9860333978        5.9860282248
 Zn        16.6011370748       16.8011077782        5.9882705263
 Zn         5.7831383481       16.7989677598       16.7989613319
 Zn        16.6011343959        5.9882714650       16.8011071339
  N         3.5962788705        5.9815132723       16.7961722241
  N        14.4157828655        5.9886711395        5.9886714155
  N        18.7845069519       16.8004121067       16.8004108966
  N         7.9646079206       16.7975733424        5.9849905903
  N        18.7872022974        5.9844389040        5.9844385470
  N         7.9645971431        5.9849902597       16.7975741210
  N         3.5962753510       16.7961712979        5.9815135355
  N        14.4121368991       16.7972104425       16.7972099190
  N        16.5978254724        3.7982340967        5.9856869689
  N        16.5957954187       14.6154181945       16.7964437838
  N        16.5946415460       18.9871713978       16.7976234929
  N        16.6016005126        8.1686933772        5.9878200967
  N         5.7810129254       18.9864714529        5.9835131184
  N         5.7821536567        8.1664165770       16.7965805080
  N         5.7846978397        3.7962081560       16.7982608532
  N         5.7829959307       14.6137734910        5.9834891754
  N         5.7846997575       16.7982619540        3.7961954517
  N         5.7829912652        5.9834923006       14.6137795201
  N        16.5946418983       16.7976234897       18.9871683745
  N        16.6016001444        5.9878198797        8.1686961149
  N         5.7810108327        5.9835133408       18.9864592937
  N         5.7821583849       16.7965834551        8.1664233695
  N        16.5978255304        5.9856861646        3.7982315849
  N        16.5957952172       16.7964444329       14.6154203823
  N         5.7852000274        3.7963198081        5.9841609574
  N         5.7824168445       14.6138402948       16.7973296345
  N        16.5945944140       18.9877749027        5.9842465230
  N        16.5952085530        8.1677717336       16.7988108274
  N         5.7814598000       18.9862946911       16.7986704709
  N         5.7832074894        8.1667067627        5.9845040670
  N        16.5975846481        3.7977105751       16.7979201097
  N        16.5992704810       14.6158479459        5.9884692045
  N         3.5954468175       16.7966744242       16.7966727124
  N        14.4134255036       16.7954701106        5.9845948034
  N        18.7855698522       16.8004937299        5.9839534061
  N         7.9632830332       16.7969199086       16.7969196970
  N        18.7855723023        5.9839543976       16.8004935161
  N         7.9668890890        5.9846509086        5.9846515449
  N         3.5975630956        5.9820419884        5.9820414542
  N        14.4134170491        5.9845951960       16.7954699577
  N        16.5945925327        5.9842460568       18.9877728547
  N        16.5952102540       16.7988100440        8.1677731975
  N        16.5975869328       16.7979191442        3.7977079806
  N        16.5992691834        5.9884692448       14.6158497106
  N         5.7851994182        5.9841604539        3.7963095730
  N         5.7824185199       16.7973348780       14.6138449218
  N         5.7814602457       16.7986708110       18.9862843417
  N         5.7832065159        5.9845086140        8.1667128829
  C        11.1875903751       15.7384947082       15.7384955419
  H        11.1874651215       14.9628950213       14.9628960057
  C        11.1925521703        4.9285367984        4.9285405380
  H        11.1941772988        4.1529969598        4.1530007883
  C         0.3696768744       15.7365191268        4.9278946994
  H         0.3680638099       14.9604238116        4.1528917817
  C         0.3696736217        4.9278911802       15.7365185863
  H         0.3680618921        4.1528902474       14.9604251034
  C        11.1885286539        7.0413951866       15.7359921106
  H        11.1879318939        7.8166156963       14.9600246769
  C        11.1891275041       17.8543156091        4.9260924535
  H        11.1893040758       18.6303281267        4.1510378945
  C         0.3723509576        7.0430799471        4.9267338968
  H         0.3724085680        7.8187481186        4.1513230318
  C         0.3699405055       17.8515472004       15.7353742953
  H         0.3699040029       18.6263053851       14.9590562570
  C        11.1885337236       15.7359927167        7.0413919879
  H        11.1879351274       14.9600238853        7.8166138390
  C        11.1891248057        4.9260922885       17.8543181480
  H        11.1893018260        4.1510391850       18.6303293432
  C         0.3699405898       15.7353750447       17.8515459956
  H         0.3699045222       14.9590569834       18.6263039389
  C         0.3723505209        4.9267338837        7.0430794781
  H         0.3724088327        4.1513230073        7.8187474985
  C        11.1897677673        7.0453550507        7.0453583248
  H        11.1879139048        7.8209382261        7.8209412324
  C        11.1873906323       17.8552846481       17.8552845830
  H        11.1870150806       18.6308116066       18.6308112565
  C         0.3721141829        7.0438361239       17.8530746363
  H         0.3737790333        7.8197587282       18.6282085659
  C         0.3721171613       17.8530710728        7.0438343278
  H         0.3737808428       18.6282073525        7.8197584589
  C        15.5388703912       11.3911131616       15.7365558943
  H        14.7640342760       11.3906693140       14.9601312323
  C        15.5350857503        0.5737422169        4.9286859129
  H        14.7596691713        0.5748786882        4.1529855551
  C         4.7252052022       11.3898819544        4.9240706751
  H         3.9505993259       11.3895690753        4.1475711338
  C         4.7293223278        0.5717579985       15.7354757463
  H         3.9549071569        0.5727008550       14.9587506877
  C        15.5467303820       11.3915338298        7.0521471388
  H        14.7726360260       11.3906696626        7.8293034020
  C        15.5340297829        0.5728751635       17.8524476600
  H        14.7585407004        0.5737254843       18.6280845785
  C         4.7236112052       11.3899169366       17.8558645925
  H         3.9482699685       11.3897408445       18.6316268432
  C         4.7266107417        0.5720604408        7.0441389620
  H         3.9510064950        0.5731617487        7.8196636273
  C         6.8394058448       11.3900841463       15.7368746396
  H         7.6147906429       11.3900951797       14.9610597634
  C         6.8441312220        0.5707586984        4.9280501710
  H         7.6207106655        0.5699749682        4.1535193666
  C        17.6597096267       11.3926115588        4.9302436942
  H        18.4336111220       11.3932023642        4.1530868607
  C        17.6495765605        0.5719157065       15.7349489876
  H        18.4249606886        0.5714549413       14.9592308883
  C         6.8397367648       11.3902996436        7.0445411311
  H         7.6144334266       11.3904200995        7.8210444252
  C         6.8436893791        0.5707122939       17.8546484245
  H         7.6190743265        0.5700615411       18.6303518173
  C        17.6548884816       11.3917383953       17.8550438402
  H        18.4301602545       11.3920577267       18.6308365396
  C        17.6509793037        0.5721082969        7.0459632318
  H        18.4262052834        0.5713590608        7.8218467822
  C        15.5388723755       15.7365566326       11.3911143680
  H        14.7640356852       14.9601315710       11.3906675319
  C        15.5350852566        4.9286841241        0.5737408012
  H        14.7596690603        4.1529841407        0.5748803987
  C         4.7293238530       15.7354786255        0.5717533313
  H         3.9549074025       14.9587520558        0.5727006136
  C         4.7252114086        4.9240594718       11.3898802246
  H         3.9506064547        4.1475631657       11.3895655411
  C         6.8393965492       15.7368683689       11.3900849006
  H         7.6147842168       14.9610531714       11.3900949704
  C         6.8441326932        4.9280502167        0.5707541466
  H         7.6207104596        4.1535203970        0.5699735498
  C        17.6495761124       15.7349489164        0.5719129953
  H        18.4249604857       14.9592304811        0.5714546272
  C        17.6597088833        4.9302424017       11.3926133528
  H        18.4336099054        4.1530860334       11.3932016544
  C        15.5467282309        7.0521474396       11.3915352895
  H        14.7726343187        7.8293033074       11.3906681241
  C        15.5340307406       17.8524463735        0.5728734621
  H        14.7585412352       18.6280836367        0.5737269484
  C         4.7266095568        7.0441417390        0.5720562091
  H         3.9510062427        7.8196646950        0.5731618281
  C         4.7236054547       17.8558550241       11.3899150109
  H         3.9482638305       18.6316201485       11.3897371489
  C         6.8397474926        7.0445349344       11.3903003102
  H         7.6144407380        7.8210375227       11.3904199961
  C         6.8436877675       17.8546484575        0.5707074677
  H         7.6190743597       18.6303533853        0.5700600002
  C        17.6509801503        7.0459626939        0.5721063128
  H        18.4262059299        7.8218458657        0.5713597318
  C        17.6548889624       17.8550430724       11.3917396353
  H        18.4301612772       18.6308362098       11.3920564228
 Kr        17.8773308756       10.5431217118       10.5431218832
