     409
 i =      96, E =    -5186.5834306266
  N         2.8276976907        5.2052852610       16.0174873704
  C         1.5098035278        5.4767993031       16.2858329554
  N        13.6444358276        5.2048632481        5.2048970440
  C        12.3269863215        5.4750505369        5.4750357821
  N        19.5128828480       17.5738867339       16.0178470676
  C        20.8307966830       17.3020094753       16.2859789722
  N         8.6911334686       17.5756862241        5.2072802320
  C        10.0086866811       17.3040805553        5.4755445480
  N        19.5081854754        5.2049485951        6.7609126286
  C        20.8260445988        5.4767592522        6.4927940596
  N         8.6911325587        5.2072703832       17.5756761648
  C        10.0086859564        5.4755489564       17.3040851260
  N         2.8273330215       17.5734861443        6.7615167452
  C         1.5096237739       17.3018846184        6.4927928667
  N        13.6487446497       17.5733045652       17.5733060154
  C        12.3310944194       17.3035891125       17.3035872589
  N        15.7952397712        3.0478253937        5.2039159057
  C        16.0640480179        1.7299546250        5.4748083608
  N        15.8005043969       13.8658138478       16.0159300904
  C        16.0709406029       12.5484789575       16.2851250464
  N        15.7993537585       19.7304272270       17.5717963526
  C        16.0674956218       21.0483182687       17.2997337779
  N        15.7974985131        8.9115665207        6.7609859680
  C        16.0689051626       10.2287150062        6.4922507797
  N         6.5391004478       19.7330531140        5.2080351261
  C         6.2699177216       21.0509149613        5.4789215219
  N         6.5402193608        8.9128729030       16.0188210207
  C         6.2707517982       10.2302392496       16.2890923072
  N         6.5418942628        3.0505847987       17.5765450892
  C         6.2742046670        1.7325683008       17.3046441663
  N         6.5395472613       13.8675374391        6.7615157562
  C         6.2693417645       12.5502379276        6.4917074057
  N         4.9865190776       16.0198715682        3.0500743653
  C         5.2586035680       16.2882289136        1.7323178112
  N         4.9844423624        5.2049816133       13.8680540609
  C         5.2538246670        5.4752745367       12.5504937776
  N        17.3546865785       16.0149495485       19.7303122613
  C        17.0831189693       16.2832662464       21.0482785917
  N        17.3529386029        5.2046726872        8.9108462555
  C        17.0846496313        5.4760107567       10.2283748851
  N         4.9816629032        6.7626823105       19.7330697838
  C         5.2530177190        6.4940920368       21.0509027249
  N         4.9841466138       17.5749181033        8.9129933314
  C         5.2547568638       17.3051192138       10.2304031598
  N        17.3510507649        6.7599484084        3.0477101640
  C        17.0798780692        6.4909597059        1.7298638458
  N        17.3569371867       17.5713539948       13.8658851377
  C        17.0871441781       17.3009237963       12.5483883422
  N         4.9813367292        3.0500116366        6.7621660850
  C         5.2529437922        1.7322198774        6.4937962669
  N         4.9865229386       13.8682079493       17.5759691254
  C         5.2558180695       12.5506073399       17.3056102506
  N        17.3508564878       19.7305296527        6.7594716280
  C        17.0796367368       21.0484228388        6.4906842604
  N        17.3540314464        8.9106162365       17.5730328174
  C        17.0857544046       10.2281986024       17.3016983620
  N         4.9870653907       19.7330074885       16.0195475655
  C         5.2587369535       21.0508741538       16.2880108653
  N         4.9824290857        8.9130142263        5.2060582965
  C         5.2529220404       10.2304164732        5.4758032022
  N        17.3545271510        3.0479128230       16.0146985019
  C        17.0831940504        1.7299394050       16.2831350943
  N        17.3554016373       13.8658891781        5.2062132662
  C        17.0857373870       12.5484157829        5.4766291558
  N         2.8302179274       16.0183156920       17.5744087401
  C         1.5123466436       16.2860566271       17.3020773574
  N        13.6460660734       16.0156186080        6.7591322873
  C        12.3287658957       16.2859920539        6.4894818717
  N        19.5105075827       16.0177427670        5.2052497978
  C        20.8283594610       16.2861577436        5.4768547808
  N         8.6928614958       16.0186873738       16.0186865860
  C        10.0103485780       16.2882866297       16.2882857818
  N        19.5102980719        6.7604411468       17.5745060357
  C        20.8282370140        6.4925000816       17.3025729804
  N         8.6898262675        6.7612748781        6.7612915703
  C        10.0071198665        6.4912472465        6.4912429792
  N         2.8250753891        6.7625200186        5.2064461298
  C         1.5073222523        6.4934068777        5.4773847230
  N        13.6460644149        6.7591164057       16.0156019924
  C        12.3287666559        6.4894922237       16.2860005380
  N        15.7954037270        5.2028894291       19.7305397936
  C        16.0639242007        5.4743119281       21.0484591571
  N        15.7981752739       16.0170265073        8.9113733636
  C        16.0697845090       16.2856819697       10.2285704006
  N        15.7988723505       17.5710773969        3.0476008582
  C        16.0674476942       17.2993862866        1.7298029048
  N        15.7993188880        6.7618422268       13.8656960806
  C        16.0697599747        6.4926443509       12.5484310732
  N         6.5380753968        5.2070352884        3.0502383892
  C         6.2695709604        5.4784473151        1.7323239284
  N         6.5418271874       16.0195604203       13.8676851730
  C         6.2715675686       16.2893873996       12.5503339413
  N         6.5429827668       17.5759417050       19.7331041607
  C         6.2745533548       17.3043019172       21.0509797217
  N         6.5383038730        6.7621936492        8.9130221463
  C         6.2686853277        6.4920344344       10.2303288516
  N        19.5102997619       17.5744944964        6.7604537952
  C        20.8282426597       17.3025765424        6.4924932828
  N         8.6934468537       17.5746822001       17.5746810118
  C        10.0108316854       17.3042814244       17.3042802186
  N         2.8250758833        5.2064463733        6.7625194366
  C         1.5073225094        5.4773856572        6.4934057510
  N        13.6464089584        5.2031444536       17.5717489021
  C        12.3288984458        5.4736440123       17.3021944444
  N         2.8302182211       17.5744102476       16.0183145172
  C         1.5123463642       17.3020785787       16.2860556754
  N        13.6464140876       17.5717642246        5.2031619446
  C        12.3288978183       17.3021847519        5.4736350820
  N        19.5105060962        5.2052380619       16.0177552953
  C        20.8283549732        5.4768600766       16.2861526741
  N         8.6890590570        5.2055686678        5.2055857154
  C        10.0067325097        5.4752980449        5.4752939545
  N         6.5429829909       19.7331063426       17.5759399495
  C         6.2745524083       21.0509816888       17.3042997770
  N         6.5382948507        8.9130230741        6.7622021989
  C         6.2686876094       10.2303298705        6.4920331233
  N         6.5380819278        3.0502394353        5.2070403908
  C         6.2695693414        1.7323251560        5.4784426627
  N         6.5418277224       13.8676868981       16.0195609831
  C         6.2715681661       12.5503352972       16.2893893746
  N        15.7988603087        3.0475986929       17.5710694197
  C        16.0674502351        1.7298063117       17.2993928934
  N        15.7993530109       13.8656969259        6.7618734745
  C        16.0697456870       12.5484299360        6.4926262601
  N        15.7954014530       19.7305377351        5.2028943445
  C        16.0639278936       21.0484617290        5.4743115895
  N        15.7981633030        8.9113743411       16.0170373583
  C        16.0697886829       10.2285690788       16.2856744527
  N        17.3508589502        6.7594676125       19.7305304043
  C        17.0796360882        6.4906879278       21.0484197183
  N        17.3540443734       17.5730229258        8.9106149771
  C        17.0857472370       17.3017029749       10.2282013535
  N         4.9813311458        6.7621601158        3.0500116760
  C         5.2529466075        6.4937997575        1.7322193969
  N         4.9865221787       17.5759692353       13.8682062793
  C         5.2558163264       17.3056097526       12.5506054912
  N        17.3545374081       16.0147086903        3.0479126721
  C        17.0831891348       16.2831310545        1.7299359483
  N        17.3553688073        5.2061811280       13.8658882472
  C        17.0857534281        5.4766458569       12.5484175747
  N         4.9870649061       16.0195492259       19.7330063897
  C         5.2587364829       16.2880115820       21.0508723375
  N         4.9824381871        5.2060492454        8.9130132737
  C         5.2529216096        5.4758060640       10.2304154517
  N        17.3546859820       19.7303130263       16.0149493585
  C        17.0831186110       21.0482797128       16.2832641218
  N        17.3529609430        8.9108462171        5.2046977693
  C        17.0846386150       10.2283721697        5.4759995490
  N         4.9865174141        3.0500749914       16.0198679367
  C         5.2586012787        1.7323184616       16.2882295077
  N         4.9844363986       13.8680565037        5.2049902232
  C         5.2538261560       12.5504963351        5.4752720256
  N        17.3510375484        3.0477103727        6.7599637250
  C        17.0798831693        1.7298628688        6.4909509213
  N        17.3569354459       13.8658852469       17.5713561048
  C        17.0871463202       12.5483888584       17.3009247289
  N         4.9816701139       19.7330704040        6.7626860414
  C         5.2530162304       21.0509026232        6.4940885506
  N         4.9841445968        8.9129947939       17.5749166968
  C         5.2547584299       10.2304055685       17.3051201721
  N        19.5081861489        6.7609115877        5.2049496878
  C        20.8260429662        6.4927948200        5.4767585963
  N         8.6913769841        6.7618068025       16.0186431393
  C        10.0087453912        6.4908688147       16.2874803563
  N         2.8273306337        6.7615130558       17.5734914726
  C         1.5096205922        6.4927957987       17.3018850075
  N        13.6444017721        6.7609310055        6.7609652415
  C        12.3270806148        6.4910720923        6.4910574758
  N         2.8277008585       16.0174834596        5.2052900756
  C         1.5098066656       16.2858345199        5.4767982050
  N        13.6477542269       16.0172808870       16.0172831356
  C        12.3304961990       16.2875717415       16.2875703486
  N        19.5128832126       16.0178475730       17.5738854217
  C        20.8307969147       16.2859797213       17.3020083321
  N         8.6913787599       16.0186541759        6.7618153434
  C        10.0087462327       16.2874773530        6.4908625867
  N         6.5418942511       17.5765477395        3.0505829939
  C         6.2742082512       17.3046451634        1.7325673417
  N         6.5395542244        6.7615080392       13.8675363916
  C         6.2693386385        6.4917083747       12.5502359270
  N         6.5390938713        5.2080312063       19.7330524488
  C         6.2699181307        5.4789261888       21.0509147123
  N         6.5402209607       16.0188223109        8.9128714291
  C         6.2707512238       16.2890900813       10.2302372016
  N        15.7993547963       17.5717962607       19.7304258466
  C        16.0674987836       17.2997330645       21.0483172492
  N        15.7974730917        6.7609637896        8.9115668219
  C        16.0689139915        6.4922640014       10.2287157800
  N        15.7952536418        5.2039020050        3.0478261087
  C        16.0640393564        5.4748138207        1.7299545144
  N        15.8005069768       16.0159282596       13.8658127987
  C        16.0709417884       16.2851271899       12.5484779534
 Zn        14.5053631694       14.7230544193       14.7230533275
 Cl        13.2726492008       13.4911115133       13.4911110684
 Zn        14.5037277888        3.9099483704        3.9099493391
 Cl        13.2635819802        2.6816249761        2.6816266991
 Zn         3.6910212969       14.7268569135        3.9096245688
 Cl         2.4629651094       13.4911700412        2.6767731344
 Zn         3.6910189889        3.9096253976       14.7268553629
 Cl         2.4629622107        2.6767730901       13.4911694868
 Zn         7.8343527374        8.0549402740       14.7240832536
 Cl         9.0659749964        9.2869714990       13.4911643940
 Zn         7.8327489458       18.8715344156        3.9146282075
 Cl         9.0696613500       20.1039876834        2.6872458999
 Zn        18.6460222242        8.0516742013        3.9090640504
 Cl        19.8747442589        9.2876814092        2.6771547396
 Zn        18.6506050252       18.8673337036       14.7246116767
 Cl        19.8802959907       20.0946037408       13.4849278553
 Zn         7.8343543948       14.7240843754        8.0549387365
 Cl         9.0659756299       13.4911657493        9.2869702900
 Zn         7.8327470505        3.9146298170       18.8715342082
 Cl         9.0696594004        2.6872471357       20.1039872569
 Zn        18.6506053624       14.7246123526       18.8673332334
 Cl        19.8802957412       13.4849280530       20.0946027160
 Zn        18.6460218688        3.9090638945        8.0516741088
 Cl        19.8747415966        2.6771559499        9.2876820121
 Zn        14.5034699014        8.0546485148        8.0546465638
 Cl        13.2730937639        9.2877720350        9.2877725589
 Zn        14.5086193256       18.8678828431       18.8678833693
 Cl        13.2725928678       20.0981739195       20.0981739632
 Zn         3.6882715227        8.0538726116       18.8687047874
 Cl         2.4557354805        9.2926222289       20.0940642172
 Zn         3.6882734375       18.8687043401        8.0538703591
 Cl         2.4557377234       20.0940633784        9.2926203479
 Zn        14.5042855176       14.7227746269        8.0543136955
 Cl        13.2725442824       13.4904850627        9.2868913004
 Zn        14.5059392090        3.9077471533       18.8659598624
 Cl        13.2677305563        2.6738770769       20.0905397419
 Zn         3.6922386043       14.7272246978       18.8704481970
 Cl         2.4622266738       13.4906735080       20.1005194095
 Zn         3.6874297520        3.9118021693        8.0541296370
 Cl         2.4566976774        2.6837154665        9.2920258519
 Zn         7.8337084178        8.0550233636        8.0550224792
 Cl         9.0659236795        9.2872174799        9.2872174091
 Zn         7.8352956540       18.8697857355       18.8697839984
 Cl         9.0754694713       20.0980076998       20.0980062791
 Zn        18.6463868386        8.0511932478       18.8694670674
 Cl        19.8737674418        9.2879150951       20.1020251613
 Zn        18.6463890091       18.8694671891        8.0511929053
 Cl        19.8737692218       20.1020253325        9.2879151632
 Zn        14.5042851889        8.0543144896       14.7227746883
 Cl        13.2725443700        9.2868905164       13.4904853838
 Zn        14.5059399183       18.8659612671        3.9077450103
 Cl        13.2677301001       20.0905414659        2.6738751891
 Zn         3.6874291522        8.0541304276        3.9118011017
 Cl         2.4566964274        9.2920263151        2.6837148221
 Zn         3.6922383348       18.8704495707       14.7272231069
 Cl         2.4622267271       20.1005205712       13.4906711360
 Zn         7.8352721969       14.7244369180       14.7244365208
 Cl         9.0662736303       13.4916605027       13.4916601450
 Zn         7.8299254816        3.9115311018        3.9115294158
 Cl         9.0639599984        2.6802188165        2.6802188034
 Zn        18.6499193719       14.7243341737        3.9113711981
 Cl        19.8806828236       13.4854732667        2.6843329919
 Zn        18.6499176667        3.9113732067       14.7243348273
 Cl        19.8806805113        2.6843345046       13.4854751994
 Zn         5.7596747848        5.9867849377       16.7993701742
 Zn        16.5767956123       16.7948763259       16.7948759300
 Zn        16.5707440902        5.9836791663        5.9836865912
 Zn         5.7596805622       16.7993734878        5.9867856471
 Zn         5.7558435583        5.9866720628        5.9866734556
 Zn        16.5731603309       16.7948209906        5.9831554166
 Zn         5.7646928100       16.7998875156       16.7998839428
 Zn        16.5731526817        5.9831499585       16.7948202955
  N         3.5740345897        5.9826569672       16.7964612755
  N        14.3907336624        5.9828973723        5.9828749202
  N        18.7662188808       16.7968953881       16.7968949087
  N         7.9446848011       16.7979393975        5.9853579479
  N        18.7614937838        5.9820546762        5.9820582000
  N         7.9446817990        5.9853660086       16.7979438671
  N         3.5740359224       16.7964656511        5.9826520042
  N        14.3946601942       16.7951064285       16.7951047224
  N        16.5738579492        3.7944601914        5.9813195003
  N        16.5785174055       14.6122926123       16.7938912812
  N        16.5780423683       18.9837341722       16.7944790085
  N        16.5745546942        8.1648052406        5.9824663691
  N         5.7597817951       18.9864785047        5.9847044511
  N         5.7618846276        8.1666252469       16.7966943616
  N         5.7628933885        3.7969946105       16.7992267105
  N         5.7622406178       14.6143625091        5.9831977138
  N         5.7628974893       16.7992256104        3.7969922776
  N         5.7622335684        5.9832037931       14.6143617183
  N        16.5780422232       16.7944798988       18.9837336274
  N        16.5745718879        5.9824816617        8.1648047409
  N         5.7597828838        5.9847099164       18.9864768064
  N         5.7618863732       16.7966941914        8.1666245190
  N        16.5738474805        5.9813265034        3.7944605201
  N        16.5785158066       16.7938946023       14.6122914549
  N         5.7587914488        3.7968206186        5.9837706064
  N         5.7644718781       14.6145154698       16.7978892544
  N        16.5739503227       18.9838754136        5.9804440164
  N        16.5752409414        8.1645911427       16.7956064273
  N         5.7641011886       18.9865151279       16.7986974286
  N         5.7601086766        8.1666873627        5.9843352048
  N        16.5775216210        3.7944046249       16.7939260410
  N        16.5772364550       14.6122561440        5.9839326842
  N         3.5768205192       16.7977255783       16.7977235740
  N        14.3925803290       16.7935076746        5.9810425733
  N        18.7637034678       16.7969990964        5.9818620488
  N         7.9467477261       16.7968672952       16.7968651732
  N        18.7637017111        5.9818703547       16.7969902202
  N         7.9427729496        5.9835912672        5.9835796728
  N         3.5715517342        5.9840241781        5.9840245791
  N        14.3925779513        5.9810571574       16.7935170123
  N        16.5739454843        5.9804481330       18.9838757584
  N        16.5752351666       16.7956159353        8.1645901548
  N        16.5775149323       16.7939210473        3.7944042468
  N        16.5772576148        5.9839555480       14.6122550358
  N         5.7587954959        5.9837757586        3.7968196689
  N         5.7644712551       16.7978901999       14.6145137936
  N         5.7641011501       16.7986996364       18.9865132539
  N         5.7601042874        5.9843410736        8.1666861577
  C        11.1700837091       15.7373104672       15.7373102289
  H        11.1695601781       14.9617044264       14.9617044482
  C        11.1667046849        4.9246769909        4.9246785472
  H        11.1667034749        4.1491403898        4.1491429721
  C         0.3490059481       15.7349895901        4.9273344616
  H         0.3487971926       14.9588584319        4.1523493722
  C         0.3490050958        4.9273347784       15.7349907628
  H         0.3487942902        4.1523495048       14.9588600043
  C        11.1687079896        7.0404663313       15.7357531059
  H        11.1686260761        7.8158316294       14.9599178108
  C        11.1687692726       17.8536702389        4.9241397580
  H        11.1687557120       18.6294095012        4.1488040239
  C         0.3466926145        7.0438281098        4.9272572944
  H         0.3469552081        7.8195784777        4.1519086450
  C         0.3515764394       17.8513633071       15.7349298766
  H         0.3516629631       18.6262046413       14.9586705047
  C        11.1687113072       15.7357524141        7.0404637059
  H        11.1686271793       14.9599173610        7.8158295985
  C        11.1687663219        4.9241424009       17.8536702588
  H        11.1687543993        4.1488063160       18.6294088502
  C         0.3515768350       15.7349306766       17.8513619119
  H         0.3516636019       14.9586712709       18.6262030267
  C         0.3466941833        4.9272571870        7.0438278653
  H         0.3469565260        4.1519084586        7.8195782226
  C        11.1671529731        7.0417963631        7.0417976406
  H        11.1671790147        7.8173936560        7.8173959075
  C        11.1712723951       17.8543954590       17.8543943912
  H        11.1715670407       18.6299281574       18.6299268284
  C         0.3490143788        7.0434283735       17.8518967174
  H         0.3495948093        7.8193350458       18.6270734668
  C         0.3490157980       17.8518955500        7.0434282334
  H         0.3495978682       18.6270720476        7.8193355644
  C        15.5199548277       11.3886613278       15.7344773463
  H        14.7443343293       11.3887941271       14.9588835811
  C        15.5133657144        0.5693592389        4.9247139920
  H        14.7376232940        0.5699197275        4.1493664899
  C         4.7030028372       11.3905479718        4.9248561332
  H         3.9276600154       11.3905282411        4.1491271908
  C         4.7093563538        0.5716305893       15.7370167575
  H         3.9345235382        0.5718864361       14.9607394576
  C        15.5188020220       11.3886799070        7.0433442871
  H        14.7429041486       11.3887520114        7.8186591111
  C        15.5167772684        0.5691418412       17.8492555168
  H        14.7409811755        0.5695736497       18.6245671327
  C         4.7048235021       11.3906418190       17.8558666984
  H         3.9292083935       11.3906869909       18.6313194270
  C         4.7028625161        0.5716310813        7.0443474250
  H         3.9272117512        0.5719283458        7.8197833503
  C         6.8217552108       11.3901717027       15.7385903546
  H         7.5973287331       11.3899324618       14.9629592095
  C         6.8209658267        0.5716171868        4.9294105683
  H         7.5975275793        0.5715624708        4.1548589206
  C        17.6357133041       11.3882831083        4.9257633605
  H        18.4108382847       11.3881403862        4.1498221683
  C        17.6325241015        0.5690826244       15.7321607457
  H        18.4074485927        0.5690875690       14.9559919384
  C         6.8193424479       11.3902100819        7.0428684140
  H         7.5943955606       11.3900477689        7.8190174733
  C         6.8251087637        0.5718044259       17.8541676305
  H         7.6008740210        0.5717698477       18.6294908819
  C        17.6372151285       11.3881472800       17.8515421393
  H        18.4127045584       11.3879527231       18.6271187381
  C        17.6293205519        0.5690416105        7.0417011654
  H        18.4042770960        0.5689256484        7.8178543116
  C        15.5199548064       15.7344778388       11.3886590302
  H        14.7443343425       14.9588838019       11.3887934318
  C        15.5133648546        4.9247147814        0.5693598900
  H        14.7376230907        4.1493671478        0.5699188314
  C         4.7093577443       15.7370180867        0.5716290558
  H         3.9345250077       14.9607408718        0.5718855813
  C         4.7030048136        4.9248540742       11.3905463856
  H         3.9276622247        4.1491248180       11.3905256099
  C         6.8217536576       15.7385887592       11.3901708275
  H         7.5973271455       14.9629577047       11.3899314915
  C         6.8209651940        4.9294122692        0.5716156064
  H         7.5975267291        4.1548602942        0.5715605525
  C        17.6325249326       15.7321605215        0.5690828963
  H        18.4074499040       14.9559918426        0.5690860699
  C        17.6357136207        4.9257664214       11.3882826433
  H        18.4108379851        4.1498241223       11.3881412878
  C        15.5188033133        7.0433463007       11.3886776583
  H        14.7429041753        7.8186602991       11.3887519035
  C        15.5167774419       17.8492557782        0.5691419713
  H        14.7409812980       18.6245678067        0.5695722228
  C         4.7028615043        7.0443494667        0.5716305659
  H         3.9272104708        7.8197851085        0.5719286234
  C         4.7048225077       17.8558651320       11.3906400847
  H         3.9292075630       18.6313180758       11.3906844600
  C         6.8193445611        7.0428670128       11.3902094972
  H         7.5943978681        7.8190158757       11.3900471678
  C         6.8251097214       17.8541687738        0.5718021872
  H         7.6008749418       18.6294920326        0.5717674311
  C        17.6293192433        7.0417015238        0.5690431791
  H        18.4042759484        7.8178539434        0.5689255904
  C        17.6372155338       17.8515431550       11.3881462118
  H        18.4127053399       18.6271197772       11.3879527992
 Kr        19.7505511744       10.7019389559       10.7019390637
