     409
 i =      96, E =    -5186.5849456809
  N         2.9598283480        5.2043454761       16.0059660084
  C         1.6411642252        5.4736932139       16.2741617414
  N        13.7828944185        5.1738886777        5.1738889978
  C        12.4629459394        5.4376267917        5.4376266944
  N        19.6423926992       17.5591968827       16.0035172012
  C        20.9604377746       17.2911247798       16.2751075136
  N         8.8261635053       17.6043971455        5.1660558285
  C        10.1434076294       17.3298964653        5.4347056687
  N        19.6392894835        5.2018742650        6.7583986828
  C        20.9572253078        5.4745854580        6.4906792129
  N         8.8261611803        5.1660571078       17.6043958518
  C        10.1434124582        5.4347230741       17.3298782323
  N         2.9572670734       17.5623336596        6.7599530593
  C         1.6396190101       17.2905185200        6.4895337126
  N        13.7857410452       17.5804941888       17.5804940994
  C        12.4654831787       17.3170824875       17.3170822733
  N        15.9441787645        3.0351416298        5.1913018267
  C        16.2098334259        1.7183786203        5.4674279292
  N        15.9105775015       13.8581002290       16.0109364691
  C        16.1803376551       12.5398656479       16.2789417483
  N        15.9425895021       19.7224571950       17.5669137215
  C        16.2088181752       21.0394968003       17.2919669590
  N        15.9090273864        8.8985176185        6.7435627602
  C        16.1788700759       10.2173139425        6.4767354277
  N         6.6496504743       19.7292986790        5.1940027777
  C         6.3806960980       21.0454666628        5.4687852877
  N         6.6846628533        8.9040650741       16.0124869698
  C         6.4107379223       10.2225554732       16.2743418166
  N         6.6545662966        3.0416246302       17.5756341681
  C         6.3873409820        1.7251376953       17.3000579448
  N         6.6928626307       13.8625652582        6.7681799023
  C         6.4177577328       12.5445824740        6.5040657852
  N         5.1129014420       16.0055829535        3.0444105040
  C         5.3802659064       16.2751573905        1.7258525325
  N         5.1286621620        5.2204794416       13.8623383913
  C         5.3962700080        5.4935131431       12.5448068950
  N        17.4879669900       16.0014188177       19.7202827989
  C        17.2184056872       16.2696760130       21.0387862216
  N        17.4737498358        5.1969536519        8.9019305523
  C        17.2005183109        5.4663610261       10.2185510498
  N         5.1061127226        6.7623446322       19.7253661665
  C         5.3729787690        6.4930868494       21.0440788155
  N         5.1195969675       17.5583462493        8.9079943192
  C         5.3887235990       17.2842911252       10.2248245857
  N        17.4887159987        6.7578820107        3.0375980450
  C        17.2186722133        6.4903939726        1.7192908176
  N        17.4763103095       17.5569827941       13.8558906148
  C        17.2025174522       17.2887723224       12.5390098824
  N         5.1054789807        3.0438908195        6.7627262461
  C         5.3724615604        1.7252461951        6.4933546124
  N         5.1232883808       13.8625504818       17.5541566082
  C         5.3905926691       12.5449930036       17.2819998780
  N        17.4883822277       19.7193050087        6.7599922256
  C        17.2189238699       21.0378952647        6.4917361156
  N        17.4742380991        8.9025663460       17.5562250854
  C        17.2010558489       10.2194125018       17.2881775194
  N         5.1136394951       19.7258626136       16.0066857908
  C         5.3807912492       21.0445734275       16.2758185254
  N         5.1262662098        8.9075357845        5.2156783244
  C         5.3950510603       10.2243818426        5.4908158678
  N        17.4874012462        3.0383023124       16.0022774491
  C        17.2177271050        1.7200967948       16.2704072261
  N        17.4756173758       13.8550252654        5.1978371487
  C        17.2018903377       12.5382201306        5.4666195691
  N         2.9604098994       16.0098370332       17.5657593403
  C         1.6422721979       16.2782171900       17.2943307462
  N        13.7714961897       16.0230535695        6.7307244936
  C        12.4569663933       16.3004553744        6.4552358246
  N        19.6415074797       16.0017395326        5.2003699977
  C        20.9592040481       16.2720443921        5.4719008477
  N         8.8207761389       16.0442848315       16.0442845718
  C        10.1389531982       16.3109990518       16.3109988304
  N        19.6395207953        6.7573198963       17.5568297008
  C        20.9578074935        6.4881798292       17.2878183162
  N         8.8211118872        6.7137897799        6.7137905960
  C        10.1386697208        6.4457743958        6.4457743197
  N         2.9575230456        6.7636537073        5.2074646430
  C         1.6393349617        6.4932355919        5.4770746847
  N        13.7714963080        6.7307207533       16.0230591776
  C        12.4569582447        6.4552148903       16.3004764389
  N        15.9441584599        5.1934386726       19.7220117462
  C        16.2101165065        5.4686808265       21.0388329119
  N        15.9087626554       16.0104274752        8.9000775781
  C        16.1788932586       16.2783782305       10.2185916111
  N        15.9415548186       17.5675919376        3.0365744849
  C        16.2080465763       17.2925341135        1.7195418387
  N        15.9112640457        6.7454326673       13.8571865551
  C        16.1804738908        6.4772825504       12.5388206983
  N         6.6473601368        5.1928507407        3.0402726945
  C         6.3794989912        5.4684534324        1.7241330497
  N         6.6868909970       16.0062061007       13.8621000105
  C         6.4119345190       16.2712388110       12.5443688899
  N         6.6565536163       17.5753460886       19.7292619883
  C         6.3884163932       17.3002097154       21.0457747664
  N         6.6915640527        6.7616292677        8.9033659186
  C         6.4170462286        6.5006629314       10.2219754657
  N        19.6395268585       17.5568392451        6.7573300224
  C        20.9578085908       17.2878347703        6.4881980343
  N         8.8268814659       17.5990270781       17.5990263545
  C        10.1440053053       17.3268170097       17.3268165217
  N         2.9575226978        5.2074627781        6.7636552566
  C         1.6393337796        5.4770739110        6.4932362387
  N        13.7847055041        5.1788471434       17.5824631694
  C        12.4645778205        5.4418759213       17.3186152227
  N         2.9604084404       17.5657648384       16.0098322466
  C         1.6422680371       17.2943310289       16.2782173578
  N        13.7847015166       17.5824733119        5.1788357009
  C        12.4645768652       17.3186326188        5.4418587082
  N        19.6415030570        5.2003762855       16.0017466326
  C        20.9592086295        5.4719208595       16.2720664693
  N         8.8242884905        5.1595941576        5.1595946204
  C        10.1419083617        5.4300260593        5.4300258026
  N         6.6565379059       19.7292521030       17.5753303354
  C         6.3883978371       21.0457760682       17.3001913782
  N         6.6915843942        8.9033807181        6.7616495305
  C         6.4170756786       10.2219682525        6.5006991962
  N         6.6473732459        3.0402637380        5.1928380757
  C         6.3795142928        1.7241351490        5.4684357360
  N         6.6868793060       13.8621085994       16.0062168574
  C         6.4119179330       12.5443633520       16.2712605558
  N        15.9415504760        3.0365695529       17.5675960596
  C        16.2080474861        1.7195430345       17.2925326460
  N        15.9112697199       13.8571911736        6.7454279151
  C        16.1804729610       12.5388194869        6.4772843693
  N        15.9441642804       19.7220041981        5.1934438148
  C        16.2101164410       21.0388311849        5.4686801396
  N        15.9087553524        8.9000845839       16.0104217128
  C        16.1788936355       10.2185933884       16.2783795891
  N        17.4883846643        6.7599958199       19.7193119608
  C        17.2189235091        6.4917366264       21.0378934662
  N        17.4742351181       17.5562207170        8.9025595899
  C        17.2010559638       17.2881768765       10.2194141284
  N         5.1054909192        6.7627131504        3.0439003129
  C         5.3724792362        6.4933386686        1.7252409687
  N         5.1232711076       17.5541744670       13.8625378161
  C         5.3905729992       17.2820140978       12.5449911587
  N        17.4873963093       16.0022823279        3.0383074272
  C        17.2177300596       16.2704046004        1.7200967933
  N        17.4756228068        5.1978311832       13.8550201053
  C        17.2018874513        5.4666217596       12.5382195626
  N         5.1136296100       16.0066757844       19.7258700229
  C         5.3807714387       16.2757981051       21.0445630091
  N         5.1262873546        5.2156980903        8.9075192900
  C         5.3950863002        5.4908429794       10.2243871933
  N        17.4879666567       19.7202828551       16.0014189280
  C        17.2184026983       21.0387889303       16.2696786585
  N        17.4737517621        8.9019300463        5.1969525686
  C        17.2005204219       10.2185502878        5.4663596811
  N         5.1128985315        3.0444108371       16.0055804106
  C         5.3802833716        1.7258457737       16.2751761640
  N         5.1286567328       13.8623279533        5.2204717244
  C         5.3962380611       12.5448208547        5.4934847446
  N        17.4887167439        3.0375973358        6.7578836206
  C        17.2186729780        1.7192920148        6.4903949189
  N        17.4763080740       13.8558909796       17.5569800670
  C        17.2025174283       12.5390101206       17.2887722349
  N         5.1061132079       19.7253639680        6.7623424188
  C         5.3729637551       21.0440746741        6.4930997444
  N         5.1195969162        8.9079955624       17.5583461511
  C         5.3887408865       10.2248315225       17.2842779380
  N        19.6392887366        6.7583974748        5.2018754281
  C        20.9572255590        6.4906780676        5.4745864843
  N         8.8209778189        6.7169452586       16.0466858999
  C        10.1389549303        6.4482372114       16.3119593010
  N         2.9572634363        6.7599541074       17.5623339568
  C         1.6396109675        6.4895169352       17.2905027572
  N        13.7710892640        6.7290641639        6.7290642721
  C        12.4563958561        6.4533239885        6.4533239082
  N         2.9598330335       16.0059670492        5.2043461906
  C         1.6411765422       16.2741410040        5.4736738869
  N        13.7718253230       16.0244671844       16.0244672184
  C        12.4573639270       16.3012507729       16.3012507854
  N        19.6423918713       16.0035197489       17.5591936122
  C        20.9604361094       16.2751068334       17.2911248847
  N         8.8209748446       16.0466890516        6.7169426834
  C        10.1389454948       16.3119409038        6.4482563079
  N         6.6545669484       17.5756340291        3.0416218481
  C         6.3873604675       17.3000765335        1.7251429123
  N         6.6928541847        6.7681746300       13.8625742207
  C         6.4177289362        6.5040345193       12.5445698530
  N         6.6496529123        5.1940019038       19.7292998704
  C         6.3806794596        5.4688046291       21.0454757416
  N         6.6846607561       16.0124891658        8.9040609228
  C         6.4107546299       16.2743210597       10.2225429016
  N        15.9425874791       17.5669163289       19.7224581494
  C        16.2088173441       17.2919685682       21.0394966857
  N        15.9090288328        6.7435607675        8.8985170948
  C        16.1788718492        6.4767329281       10.2173156218
  N        15.9441796657        5.1913021508        3.0351415125
  C        16.2098331138        5.4674275824        1.7183791323
  N        15.9105771910       16.0109362961       13.8581004833
  C        16.1803372144       16.2789410559       12.5398663541
 Zn        14.6136982421       14.7237495963       14.7237498836
 Cl        13.3925848305       13.4865880005       13.4865873844
 Zn        14.6586767747        3.8898620337        3.8898604414
 Cl        13.4345097778        2.6527185678        2.6527196915
 Zn         3.8336215146       14.7132242390        3.9199477571
 Cl         2.6102397811       13.4590408726        2.6996283923
 Zn         3.8336097130        3.9199396723       14.7132194837
 Cl         2.6102371430        2.6996273797       13.4590373344
 Zn         7.9974182653        8.0246358851       14.7561451075
 Cl         9.3811052569        9.2122735491       13.6449810462
 Zn         7.9430011786       18.8854598605        3.8882570542
 Cl         9.1344740783       20.1370809394        2.6359317796
 Zn        18.7740397235        8.0511918401        3.9068220212
 Cl        20.0091677525        9.2885889032        2.6822855534
 Zn        18.7744298259       18.8462833124       14.7118887845
 Cl        20.0088898583       20.0709949258       13.4725538017
 Zn         7.9974096488       14.7561540899        8.0246246796
 Cl         9.3811032141       13.6449846466        9.2122714555
 Zn         7.9430099739        3.8882515417       18.8854629921
 Cl         9.1344743964        2.6359312670       20.1370807061
 Zn        18.7744299416       14.7118903332       18.8462815325
 Cl        20.0088886362       13.4725555307       20.0709922558
 Zn        18.7740378313        3.9068223414        8.0511920540
 Cl        20.0091674857        2.6822851473        9.2885904193
 Zn        14.6129944959        8.0263949249        8.0263945223
 Cl        13.3895391676        9.2633507834        9.2633509318
 Zn        14.6579888864       18.8698285738       18.8698272123
 Cl        13.4284189979       20.1038096117       20.1038095356
 Zn         3.8235222078        8.0553794008       18.8508768493
 Cl         2.5930828792        9.2969342009       20.0766722260
 Zn         3.8235270278       18.8508701826        8.0553739667
 Cl         2.5930829048       20.0766739096        9.2969325682
 Zn        14.6135446726       14.7228454464        8.0292323906
 Cl        13.3909172194       13.4869551500        9.2669670287
 Zn        14.6578526981        3.8933755014       18.8716622638
 Cl        13.4294847607        2.6562943208       20.1041224285
 Zn         3.8307096555       14.7160057791       18.8516898661
 Cl         2.6033495667       13.4707623009       20.0773446679
 Zn         3.8280711956        3.9198140534        8.0577945199
 Cl         2.6008282867        2.7002363463        9.3085221969
 Zn         8.0008507775        8.0145228191        8.0145097072
 Cl         9.3954635200        9.1580292770        9.1580303099
 Zn         7.9470358640       18.8816937132       18.8816929345
 Cl         9.1472410497       20.1294430107       20.1294415168
 Zn        18.7735195034        8.0524543012       18.8442085702
 Cl        20.0081478231        9.2881536576       20.0719900687
 Zn        18.7735228329       18.8442049248        8.0524537618
 Cl        20.0081496681       20.0719906997        9.2881543829
 Zn        14.6135490106        8.0292398927       14.7228369223
 Cl        13.3909144193        9.2669689506       13.4869534007
 Zn        14.6578569974       18.8716633992        3.8933750446
 Cl        13.4294861220       20.1041224601        2.6562936155
 Zn         3.8280698521        8.0578023350        3.9198226879
 Cl         2.6008283236        9.3085207201        2.7002373105
 Zn         3.8307046938       18.8516888459       14.7159964262
 Cl         2.6033464835       20.0773498970       13.4707575523
 Zn         7.9944419822       14.7442775856       14.7442667523
 Cl         9.3698560266       13.5899108338       13.5899105492
 Zn         7.9374690527        3.8828943863        3.8828944795
 Cl         9.1200993431        2.6266287201        2.6266289982
 Zn        18.7744546176       14.7121140673        3.9064596701
 Cl        20.0092979173       13.4718806341        2.6840251627
 Zn        18.7744520986        3.9064532493       14.7121108825
 Cl        20.0092997060        2.6840234882       13.4718792325
 Zn         5.8946763980        5.9674014006       16.8032395492
 Zn        16.7093057319       16.7827859663       16.7827858156
 Zn        16.7104411699        5.9657266753        5.9657276882
 Zn         5.8946776011       16.8032535595        5.9673960497
 Zn         5.8934374077        5.9644769504        5.9644807032
 Zn        16.7095719855       16.7822427992        5.9676987830
 Zn         5.8963489298       16.7993932793       16.7993894317
 Zn        16.7095714749        5.9676991593       16.7822443382
  N         3.7050783727        5.9825093496       16.7851395345
  N        14.5237724299        5.9546057855        5.9546061938
  N        18.8959312276       16.7802980463       16.7803061275
  N         8.0768638310       16.8271985013        5.9426175284
  N        18.8931549625        5.9788112933        5.9788126970
  N         8.0768468126        5.9426140941       16.8272027079
  N         3.7050652289       16.7851347348        5.9825020293
  N        14.5253089750       16.7990466679       16.7990467245
  N        16.7176479879        3.7829065247        5.9720277051
  N        16.6946825320       14.6032577385       16.7838897627
  N        16.7160701661       18.9745670430       16.7862091153
  N        16.6925196741        8.1536492358        5.9696029754
  N         5.8784921866       18.9812326421        5.9763433909
  N         5.9035227926        8.1592011714       16.7893264291
  N         5.8837231986        3.7892183049       16.7926011864
  N         5.9125834380       14.6093144264        5.9909742620
  N         5.8837235949       16.7926008818        3.7891987941
  N         5.9125781476        5.9909814307       14.6093340587
  N        16.7160747765       16.7862047705       18.9745678377
  N        16.6925211307        5.9696008128        8.1536504230
  N         5.8784820688        5.9763551198       18.9812170880
  N         5.9035355878       16.7893190138        8.1592141534
  N        16.7176459187        5.9720244323        3.7829068067
  N        16.6946798875       16.7838877571       14.6032593126
  N         5.8767064614        3.7881995916        5.9757242883
  N         5.9070202310       14.6091065319       16.7829155089
  N        16.7171140958       18.9738444102        5.9744979486
  N        16.6927280450        8.1547628560       16.7834109844
  N         5.8853799800       18.9812845067       16.7929315641
  N         5.9104514514        8.1585665125        5.9841013261
  N        16.7153223383        3.7840050968       16.7868708843
  N        16.6946252820       14.6023523975        5.9715997217
  N         3.7069282337       16.7884567072       16.7884677736
  N        14.5246977912       16.7992907003        5.9579736207
  N        18.8942195882       16.7789330515        5.9783520866
  N         8.0773016494       16.8222410896       16.8222404849
  N        18.8942038437        5.9783628485       16.7789441308
  N         8.0759656910        5.9370464832        5.9370468515
  N         3.7039757399        5.9856810390        5.9856791301
  N        14.5247123619        5.9579564311       16.7993093541
  N        16.7171190904        5.9745041164       18.9738430445
  N        16.6927227835       16.7834043847        8.1547672214
  N        16.7153253836       16.7868677295        3.7839988107
  N        16.6946211746        5.9716030804       14.6023614456
  N         5.8767116994        5.9757182853        3.7882083897
  N         5.9070351634       16.7829058378       14.6090967726
  N         5.8853660659       16.7929182372       18.9812954945
  N         5.9104429854        5.9840989491        8.1585484208
  C        11.2940586458       15.7556659662       15.7556658929
  H        11.2828896853       14.9800689097       14.9800687746
  C        11.3058985226        4.8830370697        4.8830367752
  H        11.3128429638        4.1076455979        4.1076455027
  C         0.4810511082       15.7225338953        4.9230774023
  H         0.4816994523       14.9461033680        4.1484838806
  C         0.4810512125        4.9230608337       15.7225194340
  H         0.4816959994        4.1484815164       14.9461026550
  C        11.2941248392        7.0008502506       15.7542187394
  H        11.2831724787        7.7760213074       14.9782257438
  C        11.3081785792       17.8759028439        4.8886210940
  H        11.3159039117       18.6530300647        4.1149461462
  C         0.4782520411        7.0424367897        4.9261813558
  H         0.4776081837        7.8185028420        4.1511655079
  C         0.4813100004       17.8427402625       15.7263054244
  H         0.4807006906       18.6175581651       14.9500383028
  C        11.2941297837       15.7542385436        7.0008307715
  H        11.2831710551       14.9782282048        7.7760188534
  C        11.3081805039        4.8886101393       17.8759133092
  H        11.3159037509        4.1149463072       18.6530295090
  C         0.4813118066       15.7263082201       17.8427366827
  H         0.4807017992       14.9500409174       18.6175546736
  C         0.4782512649        4.9261809526        7.0424370436
  H         0.4776085680        4.1511648588        7.8185032137
  C        11.2945092348        7.0000658052        7.0000654695
  H        11.2845949051        7.7756668239        7.7756664777
  C        11.3091855753       17.8724763051       17.8724758778
  H        11.3170859375       18.6478947758       18.6478942632
  C         0.4777744140        7.0391958246       17.8392178556
  H         0.4759161902        7.8150210892       18.6145011495
  C         0.4777771763       17.8392042035        7.0391833061
  H         0.4759191569       18.6145020066        7.8150221115
  C        15.6259574945       11.3796263712       15.7313317686
  H        14.8470288547       11.3805279057       14.9591258686
  C        15.6621326115        0.5582874158        4.9146723335
  H        14.8914167834        0.5580533477        4.1341836720
  C         4.8416933946       11.3854676402        4.9455376936
  H         4.0635397963       11.3869262432        4.1722837053
  C         4.8348532531        0.5649626309       15.7200586326
  H         4.0654324107        0.5644331334       14.9385375505
  C        15.6261880766       11.3782499573        7.0246500451
  H        14.8472527297       11.3787996453        7.7969698057
  C        15.6603027123        0.5592512623       17.8451301091
  H        14.8887588491        0.5590178659       18.6247522733
  C         4.8359674187       11.3858465175       17.8303071130
  H         4.0582888106       11.3874329326       18.6040014370
  C         4.8269571803        0.5645151648        7.0486635735
  H         4.0576271042        0.5641246684        7.8302878125
  C         6.9642893922       11.3824691470       15.7254737766
  H         7.7492864272       11.3799385413       14.9600562272
  C         6.9262802296        0.5649743563        4.9134747082
  H         7.6944163852        0.5655798592        4.1303315256
  C        17.7543255183       11.3781619908        4.9189160657
  H        18.5339633724       11.3778708711        4.1475268100
  C        17.7643145038        0.5597455568       15.7154553757
  H        18.5351646935        0.5605767079       14.9353462092
  C         6.9697699168       11.3823081511        7.0498902728
  H         7.7534749453       11.3797860523        7.8163681213
  C         6.9342271845        0.5657094693       17.8548345575
  H         7.7030087447        0.5664977879       18.6373034139
  C        17.7554472076       11.3787667723       17.8358604386
  H        18.5357442539       11.3781443014       18.6067014806
  C        17.7645248327        0.5589280434        7.0460894923
  H        18.5349371409        0.5597947001        7.8266110712
  C        15.6259581601       15.7313318550       11.3796241725
  H        14.8470290617       14.9591256979       11.3805278652
  C        15.6621320205        4.9146722297        0.5582909623
  H        14.8914171633        4.1341846103        0.5580542601
  C         4.8348722759       15.7200774187        0.5649574236
  H         4.0654372969       14.9385415592        0.5644333979
  C         4.8416724326        4.9455097768       11.3854678347
  H         4.0635383191        4.1722786055       11.3869248947
  C         6.9642666419       15.7254895020       11.3824688061
  H         7.7492826334       14.9600560297       11.3799364065
  C         6.9262938183        4.9134632134        0.5649797681
  H         7.6944173300        4.1303323397        0.5655812049
  C        17.7643134850       15.7154566988        0.5597443993
  H        18.5351642300       14.9353468131        0.5605754671
  C        17.7543264257        4.9189143509       11.3781594819
  H        18.5339629509        4.1475260530       11.3778719339
  C        15.6261864612        7.0246510708       11.3782506986
  H        14.8472518692        7.7969702609       11.3788004408
  C        15.6603044139       17.8451292999        0.5592526927
  H        14.8887593241       18.6247529624        0.5590180375
  C         4.8269448620        7.0486787483        0.5645108296
  H         4.0576278753        7.8302894327        0.5641262045
  C         4.8359761358       17.8302928493       11.3858440433
  H         4.0582854418       18.6040017041       11.3874300592
  C         6.9698012690        7.0499135368       11.3823135563
  H         7.7534799231        7.8163691182       11.3797855325
  C         6.9342147422       17.8548204220        0.5657112842
  H         7.7030094534       18.6373021234        0.5664972161
  C        17.7645234063        7.0460884154        0.5589256265
  H        18.5349352231        7.8266093161        0.5597948922
  C        17.7554484568       17.8358613166       11.3787663887
  H        18.5357467475       18.6067034355       11.3781441145
 Kr         7.5625986927       11.3605797349       11.3605790772
