     409
 i =      96, E =    -5186.5847907984
  N         2.9277795288        5.2007309778       16.0098033961
  C         1.6097394347        5.4721325916       16.2764169149
  N        13.7520995216        5.1758041711        5.1758052492
  C        12.4320173504        5.4391582433        5.4391598248
  N        19.6125845282       17.5582240040       16.0029945745
  C        20.9304336371       17.2905446199       16.2745817008
  N         8.7955470337       17.6066084103        5.1629467094
  C        10.1124613275       17.3307754094        5.4330240029
  N        19.6081950584        5.2032737193        6.7594489372
  C        20.9260111739        5.4749044459        6.4909632381
  N         8.7955443196        5.1629502611       17.6066043851
  C        10.1124569235        5.4330256719       17.3307728113
  N         2.9256033473       17.5667751613        6.7563781919
  C         1.6083382696       17.2928817306        6.4877674445
  N        13.7562733621       17.5792062702       17.5792057700
  C        12.4359528495       17.3163130424       17.3163125743
  N        15.9153438671        3.0354121232        5.1914330202
  C        16.1834978308        1.7186783760        5.4657166958
  N        15.8849824505       13.8583936300       16.0105225678
  C        16.1552222878       12.5402551890       16.2775112118
  N        15.9151395565       19.7224687762       17.5673871306
  C        16.1831620926       21.0394967109       17.2938365413
  N        15.8812295876        8.8994808063        6.7448258287
  C        16.1523237979       10.2180821761        6.4790412747
  N         6.6190738744       19.7295197944        5.1923200198
  C         6.3530948557       21.0457916486        5.4683018038
  N         6.6443994065        8.9019158759       16.0245660428
  C         6.3741807449       10.2216550271       16.2879184532
  N         6.6237902251        3.0412136511       17.5748200071
  C         6.3594096077        1.7246647457       17.2982968194
  N         6.6532480475       13.8635420084        6.7553276563
  C         6.3815478610       12.5446052661        6.4894183219
  N         5.0802703404       16.0069888609        3.0426707729
  C         5.3512289446       16.2746080663        1.7249507280
  N         5.0897472538        5.2071858637       13.8620660544
  C         5.3603330034        5.4784648935       12.5447828584
  N        17.4614598265       16.0023366542       19.7202204744
  C        17.1931447910       16.2718310293       21.0388238274
  N        17.4453713174        5.1979245642        8.9022153995
  C        17.1738004434        5.4685578649       10.2189112062
  N         5.0749928188        6.7595340261       19.7269589669
  C         5.3449603641        6.4920070771       21.0447808288
  N         5.0808887948       17.5717591875        8.9079059363
  C         5.3529131021       17.2986428334       10.2243884173
  N        17.4614104630        6.7569519129        3.0380868326
  C        17.1929941001        6.4881213127        1.7196577952
  N        17.4500407367       17.5568954063       13.8562054719
  C        17.1772056087       17.2875165974       12.5393596366
  N         5.0740829756        3.0422060428        6.7601299520
  C         5.3442448901        1.7243383915        6.4924816962
  N         5.0847975978       13.8624933495       17.5678532747
  C         5.3549263211       12.5452448402       17.2964766615
  N        17.4610391759       19.7191623643        6.7591550230
  C        17.1932525457       21.0379110432        6.4894981625
  N        17.4468390263        8.9029478446       17.5558992119
  C        17.1751984449       10.2199047882       17.2868225387
  N         5.0812709723       19.7272395193       16.0088023154
  C         5.3519389516       21.0451425947       16.2756783274
  N         5.0866089069        8.9071758754        5.2021272459
  C         5.3587169998       10.2237488248        5.4756340925
  N        17.4604919442        3.0389085658       16.0036536165
  C        17.1922592066        1.7205299871       16.2728029151
  N        17.4484428568       13.8553304526        5.1986381479
  C        17.1758042561       12.5385103015        5.4687114498
  N         2.9288516629       16.0130581008       17.5692279036
  C         1.6112327637       16.2796769029       17.2957049032
  N        13.7401115233       16.0210979725        6.7328307142
  C        12.4253446834       16.2988183967        6.4565755419
  N        19.6111138743       16.0010468898        5.2019522698
  C        20.9286535462       16.2718545619        5.4726975958
  N         8.7877865213       16.0485938733       16.0485933742
  C        10.1070133446       16.3133948839       16.3133947387
  N        19.6090682415        6.7582705186       17.5560581588
  C        20.9272758101        6.4888321747       17.2877578391
  N         8.7866824407        6.7113434568        6.7113436687
  C        10.1052430018        6.4446682508        6.4446694671
  N         2.9251278045        6.7592787973        5.2028775609
  C         1.6073394692        6.4906560665        5.4745628512
  N        13.7401128478        6.7328310211       16.0210987397
  C        12.4253398731        6.4565755216       16.2988186275
  N        15.9156988722        5.1932764690       19.7220538141
  C        16.1839134205        5.4668627901       21.0388744820
  N        15.8820534832       16.0099064573        8.9011627138
  C        16.1532298962       16.2768789570       10.2194859193
  N        15.9134909701       17.5683266050        3.0367439474
  C        16.1821148670       17.2945815453        1.7197548557
  N        15.8845604194        6.7464066075       13.8574720782
  C        16.1545031571        6.4794576921       12.5391678714
  N         6.6165760570        5.1913769752        3.0398106366
  C         6.3517556159        5.4681488250        1.7235856770
  N         6.6476521050       16.0194174847       13.8641460456
  C         6.3758705313       16.2852512667       12.5450739957
  N         6.6259928458       17.5754412680       19.7296475876
  C         6.3606254447       17.2989011407       21.0461973272
  N         6.6509934699        6.7486764694        8.9010932499
  C         6.3803843633        6.4859769039       10.2208332501
  N        19.6090733612       17.5560573171        6.7582701767
  C        20.9272754469       17.2877565100        6.4888322187
  N         8.7976145406       17.6031493769       17.6031484047
  C        10.1143159093       17.3293102627       17.3293095531
  N         2.9251286487        5.2028783754        6.7592772061
  C         1.6073395652        5.4745632374        6.4906555268
  N        13.7541920788        5.1804746819       17.5808330988
  C        12.4339929717        5.4430867750       17.3171367789
  N         2.9288519581       17.5692290024       16.0130569991
  C         1.6112325154       17.2957060088       16.2796761199
  N        13.7541906520       17.5808334848        5.1804737736
  C        12.4339981979       17.3171373840        5.4430863797
  N        19.6111089895        5.2019525874       16.0010483236
  C        20.9286543882        5.4726976929       16.2718564969
  N         8.7931813511        5.1569066070        5.1569077372
  C        10.1104992565        5.4287593397        5.4287610221
  N         6.6259919392       19.7296452027       17.5754392196
  C         6.3606253243       21.0462016434       17.2988992640
  N         6.6509917131        8.9010978763        6.7486772257
  C         6.3803773442       10.2208289912        6.4859839570
  N         6.6165779257        3.0398074148        5.1913759637
  C         6.3517564104        1.7235884406        5.4681480098
  N         6.6476517304       13.8641504954       16.0194175508
  C         6.3758712267       12.5450721150       16.2852521991
  N        15.9134887602        3.0367430175       17.5683278286
  C        16.1821134345        1.7197555916       17.2945821519
  N        15.8845625398       13.8574729020        6.7464053045
  C        16.1545044107       12.5391674339        6.4794573523
  N        15.9157008376       19.7220521418        5.1932769758
  C        16.1839144846       21.0388740965        5.4668632952
  N        15.8820515048        8.9011639091       16.0099059176
  C        16.1532287671       10.2194862206       16.2768789117
  N        17.4610380804        6.7591558626       19.7191639968
  C        17.1932515452        6.4894978064       21.0379112357
  N        17.4468402931       17.5558981797        8.9029461718
  C        17.1751995921       17.2868225176       10.2199048452
  N         5.0740838295        6.7601288097        3.0422095129
  C         5.3442450504        6.4924816157        1.7243360600
  N         5.0847964633       17.5678546182       13.8624880765
  C         5.3549253616       17.2964763044       12.5452459172
  N        17.4604931928       16.0036536214        3.0389085736
  C        17.1922605138       16.2728024031        1.7205290738
  N        17.4484413865        5.1986379067       13.8553300799
  C        17.1758028767        5.4687116861       12.5385109851
  N         5.0812701177       16.0088025809       19.7272417615
  C         5.3519385805       16.2756794648       21.0451384412
  N         5.0866110685        5.2021259040        8.9071708122
  C         5.3587246632        5.4756270845       10.2237527759
  N        17.4614592006       19.7202209875       16.0023368189
  C        17.1931440980       21.0388249657       16.2718311876
  N        17.4453720656        8.9022150125        5.1979244419
  C        17.1738012796       10.2189102489        5.4685577953
  N         5.0802703981        3.0426723568       16.0069900854
  C         5.3512292777        1.7249548569       16.2746074655
  N         5.0897461123       13.8620678289        5.2071834752
  C         5.3603256800       12.5447794385        5.4784710628
  N        17.4614102551        3.0380865839        6.7569527396
  C        17.1929941940        1.7196577460        6.4881220527
  N        17.4500406101       13.8562057739       17.5568946673
  C        17.1772051362       12.5393596878       17.2875160995
  N         5.0749922615       19.7269594054        6.7595349761
  C         5.3449598308       21.0447828184        6.4920070644
  N         5.0808901396        8.9079075258       17.5717584133
  C         5.3529145017       10.2243876172       17.2986436380
  N        19.6081949162        6.7594486500        5.2032741185
  C        20.9260107584        6.4909629759        5.4749048190
  N         8.7871907546        6.7135942007       16.0483803765
  C        10.1060789810        6.4465334445       16.3125006275
  N         2.9256008969        6.7563771162       17.5667744327
  C         1.6083384865        6.4877668868       17.2928826184
  N        13.7391008848        6.7313875279        6.7313878662
  C        12.4242361908        6.4549855595        6.4549866870
  N         2.9277815810       16.0097998575        5.2007281612
  C         1.6097388504       16.2764140452        5.4721315863
  N        13.7410150835       16.0228275417       16.0228275531
  C        12.4264441313       16.3003658717       16.3003658847
  N        19.6125848994       16.0029945565       17.5582232225
  C        20.9304335623       16.2745822525       17.2905435822
  N         8.7871916067       16.0483798046        6.7135948808
  C        10.1060837923       16.3125006799        6.4465340008
  N         6.6237941707       17.5748230310        3.0412116907
  C         6.3594113186       17.2982997446        1.7246606916
  N         6.6532454673        6.7553266978       13.8635399285
  C         6.3815535522        6.4894110510       12.5446092608
  N         6.6190702674        5.1923230858       19.7295187577
  C         6.3530929313        5.4683042626       21.0457893356
  N         6.6444013224       16.0245630234        8.9019146400
  C         6.3741808816       16.2879157641       10.2216567851
  N        15.9151397460       17.5673870777       19.7224686276
  C        16.1831626628       17.2938364036       21.0394962438
  N        15.8812295122        6.7448256822        8.8994810669
  C        16.1523231527        6.4790413657       10.2180827329
  N        15.9153441740        5.1914324802        3.0354129542
  C        16.1834977910        5.4657160657        1.7186786364
  N        15.8849823859       16.0105226999       13.8583930285
  C        16.1552227934       16.2775115152       12.5402551557
 Zn        14.5913434651       14.7228521119       14.7228517938
 Cl        13.3664548927       13.4872264212       13.4872260321
 Zn        14.6268587333        3.8912639163        3.8912643219
 Cl        13.4060503915        2.6526999611        2.6527008509
 Zn         3.7922418332       14.7160919762        3.9103094254
 Cl         2.5700241900       13.4669756480        2.6849814665
 Zn         3.7922399506        3.9103117068       14.7160929351
 Cl         2.5700236727        2.6849831892       13.4669767450
 Zn         7.9460643469        8.0154062546       14.7637310717
 Cl         9.2802184599        9.2351772919       13.6340341584
 Zn         7.9074734250       18.8867714603        3.8853565311
 Cl         9.0986301270       20.1391388087        2.6324969497
 Zn        18.7454273397        8.0515937121        3.9072901070
 Cl        19.9818709165        9.2896868017        2.6849102602
 Zn        18.7487213310       18.8463821864       14.7122094701
 Cl        19.9830676645       20.0697240449       13.4717137760
 Zn         7.9460663616       14.7637299140        8.0154055784
 Cl         9.2802206849       13.6340335567        9.2351780338
 Zn         7.9074715627        3.8853575781       18.8867711658
 Cl         9.0986284626        2.6324976976       20.1391389045
 Zn        18.7487218200       14.7122095279       18.8463804957
 Cl        19.9830677440       13.4717140339       20.0697228904
 Zn        18.7454270125        3.9072898875        8.0515949424
 Cl        19.9818705629        2.6849099328        9.2896881772
 Zn        14.5883691253        8.0287100348        8.0287100930
 Cl        13.3590753718        9.2630622628        9.2630620483
 Zn        14.6272604525       18.8689220729       18.8689220520
 Cl        13.4006592231       20.1041397043       20.1041398610
 Zn         3.7853339752        8.0518090839       18.8627474537
 Cl         2.5527542933        9.2858091613       20.0927247782
 Zn         3.7853350514       18.8627465138        8.0518081890
 Cl         2.5527551747       20.0927240606        9.2858078792
 Zn        14.5904418021       14.7219801563        8.0317998048
 Cl        13.3628108533       13.4872756824        9.2663820974
 Zn        14.6258365946        3.8945809638       18.8706258219
 Cl        13.4010797647        2.6560077153       20.1046203608
 Zn         3.7900998553       14.7187680994       18.8622643408
 Cl         2.5624953882       13.4795755952       20.0922960581
 Zn         3.7877471862        3.9090867666        8.0539300786
 Cl         2.5604704823        2.6840043100        9.2979367058
 Zn         7.9484423736        8.0069225092        8.0069230213
 Cl         9.2894637893        9.1782194762        9.1782208376
 Zn         7.9118650280       18.8842117143       18.8842101123
 Cl         9.1107053819       20.1330439397       20.1330435063
 Zn        18.7454812182        8.0526717179       18.8440889285
 Cl        19.9809309747        9.2890823753       20.0702926944
 Zn        18.7454837664       18.8440881235        8.0526716595
 Cl        19.9809333251       20.0702921514        9.2890820671
 Zn        14.5904395045        8.0318000188       14.7219803425
 Cl        13.3628091410        9.2663827512       13.4872754668
 Zn        14.6258398680       18.8706258115        3.8945805083
 Cl        13.4010816701       20.1046194862        2.6560075652
 Zn         3.7877468504        8.0539299982        3.9090854348
 Cl         2.5604696666        9.2979372656        2.6840038621
 Zn         3.7900997495       18.8622661115       14.7187675478
 Cl         2.5624954895       20.0922972576       13.4795740085
 Zn         7.9443776470       14.7564282765       14.7564280213
 Cl         9.2719696677       13.5771158944       13.5771152176
 Zn         7.9029354956        3.8797689168        3.8797677156
 Cl         9.0854427776        2.6230377959        2.6230377221
 Zn        18.7474802736       14.7124611141        3.9067070773
 Cl        19.9829256672       13.4712274286        2.6861353797
 Zn        18.7474784174        3.9067073865       14.7124617414
 Cl        19.9829247906        2.6861357012       13.4712285847
 Zn         5.8535010126        5.9640472438       16.8073107547
 Zn        16.6734744961       16.7830040059       16.7830037156
 Zn        16.6732959335        5.9663505459        5.9663513912
 Zn         5.8535037729       16.8073100488        5.9640453025
 Zn         5.8518570697        5.9612407008        5.9612385101
 Zn        16.6729159759       16.7823033575        5.9679642438
 Zn         5.8558565449       16.8050752811       16.8050728260
 Zn        16.6729140630        5.9679647950       16.7823039134
  N         3.6730056816        5.9778307510       16.7900939356
  N        14.4920869980        5.9568595565        5.9568598955
  N        18.8657961394       16.7795652541       16.7795650627
  N         8.0446216380       16.8298766733        5.9385199090
  N        18.8617583342        5.9804098914        5.9804096860
  N         8.0446180182        5.9385222856       16.8298741966
  N         3.6730066977       16.7900937091        5.9778303039
  N        14.4948621607       16.7973347140       16.7973344711
  N        16.6883509312        3.7832725159        5.9726078486
  N        16.6681391959       14.6035913049       16.7841974244
  N        16.6881550133       18.9745788363       16.7861296641
  N        16.6635385264        8.1542151895        5.9700681169
  N         5.8458770293       18.9820957734        5.9731656020
  N         5.8624125752        8.1581431098       16.8010263546
  N         5.8501672640        3.7881647637       16.7938636828
  N         5.8716449184       14.6097140008        5.9792010085
  N         5.8501712044       16.7938657745        3.7881615261
  N         5.8716396962        5.9792058667       14.6097153207
  N        16.6881553652       16.7861295001       18.9745782717
  N        16.6635382123        5.9700681360        8.1542155940
  N         5.8458740223        5.9731677114       18.9820940481
  N         5.8624128416       16.8010264978        8.1581425723
  N        16.6883513674        5.9726071829        3.7832726250
  N        16.6681388485       16.7841977340       14.6035911753
  N         5.8438991274        3.7871272300        5.9726698868
  N         5.8667148153       14.6100912778       16.7955679278
  N        16.6879991373       18.9738401670        5.9749093145
  N        16.6648810013        8.1554215553       16.7835161501
  N         5.8520483050       18.9822525509       16.7951489925
  N         5.8684022959        8.1573390755        5.9720861352
  N        16.6867982172        3.7843237040       16.7871795052
  N        16.6669590967       14.6026487515        5.9717795792
  N         3.6751972064       16.7928184961       16.7928172429
  N        14.4934311331       16.7974501637        5.9600540915
  N        18.8634908038       16.7780057210        5.9797704609
  N         8.0460853471       16.8273599510       16.8273590821
  N        18.8634887683        5.9797714786       16.7780070664
  N         8.0431985927        5.9335613826        5.9335619056
  N         3.6713287148        5.9802381236        5.9802394108
  N        14.4934294612        5.9600538593       16.7974515813
  N        16.6879975569        5.9749100102       18.9738400484
  N        16.6648829740       16.7835158651        8.1554217251
  N        16.6867997104       16.7871792751        3.7843223020
  N        16.6669572268        5.9717801069       14.6026498080
  N         5.8438994908        5.9726673943        3.7871271172
  N         5.8667155775       16.7955686730       14.6100904768
  N         5.8520472768       16.7951486733       18.9822509279
  N         5.8683987966        5.9720893578        8.1573408248
  C        11.2609011087       15.7565003136       15.7565006334
  H        11.2480477610       14.9809456069       14.9809462974
  C        11.2761016946        4.8832947004        4.8832967176
  H        11.2861481866        4.1078608625        4.1078630754
  C         0.4500915190       15.7231462858        4.9227520615
  H         0.4511499592       14.9467282474        4.1480934523
  C         0.4500901327        4.9227513107       15.7231479939
  H         0.4511480839        4.1480925347       14.9467299696
  C        11.2604420372        7.0004612868       15.7538359263
  H        11.2484144138        7.7756269690       14.9779133976
  C        11.2787078006       17.8755815416        4.8885805634
  H        11.2892930249       18.6528766845        4.1150283424
  C         0.4466692132        7.0415992015        4.9250206657
  H         0.4465507538        7.8175127540        4.1498412784
  C         0.4508007275       17.8431134943       15.7262831312
  H         0.4505984503       18.6180460021       14.9500996712
  C        11.2604443789       15.7538368366        7.0004605133
  H        11.2484155372       14.9779144421        7.7756258110
  C        11.2787058576        4.8885797925       17.8755814363
  H        11.2892903957        4.1150271266       18.6528769421
  C         0.4508007796       15.7262837294       17.8431120991
  H         0.4505987772       14.9501000361       18.6180445589
  C         0.4466702585        4.9250203644        7.0415992203
  H         0.4465517348        4.1498410532        7.8175124914
  C        11.2601767316        7.0001898811        7.0001910296
  H        11.2491610897        7.7757231608        7.7757239608
  C        11.2811078312       17.8732740594       17.8732732312
  H        11.2921458961       18.6486907924       18.6486896975
  C         0.4468589400        7.0389041069       17.8403889861
  H         0.4455014816        7.8145511811       18.6158818938
  C         0.4468615560       17.8403868032        7.0389034223
  H         0.4455042372       18.6158796354        7.8145500462
  C        15.6006684636       11.3804079597       15.7294500135
  H        14.8215759133       11.3815285036       14.9573606866
  C        15.6364296093        0.5584375304        4.9127219986
  H        14.8656893884        0.5581966805        4.1323376467
  C         4.8065796979       11.3852582062        4.9300215135
  H         4.0283834308       11.3869604695        4.1569961317
  C         4.8059071455        0.5646432559       15.7193812371
  H         4.0356637805        0.5638244370       14.9386891293
  C        15.6001002882       11.3789781729        7.0273447049
  H        14.8210410236       11.3798064063        7.7995741621
  C        15.6350023105        0.5592484443       17.8472373128
  H        14.8634363588        0.5588745979       18.6267601688
  C         4.8012168419       11.3857681827       17.8450421708
  H         4.0235843031       11.3873936401       18.6185644727
  C         4.7989503424        0.5643095110        7.0482266657
  H         4.0289256658        0.5637063890        7.8291333322
  C         6.9280950273       11.3823693742       15.7395121997
  H         7.7116154022       11.3794581604       14.9723055887
  C         6.8998422445        0.5649355724        4.9135336923
  H         7.6681595204        0.5655661547        4.1304563562
  C        17.7283973086       11.3783162370        4.9214283585
  H        18.5081636110       11.3777326689        4.1501863456
  C        17.7393700129        0.5600849356       15.7182369127
  H        18.5101897640        0.5610492054       14.9380142122
  C         6.9338040808       11.3816257317        7.0347439443
  H         7.7162950693       11.3785097019        7.8027471316
  C         6.9078642422        0.5658143613       17.8526048994
  H         7.6769652805        0.5667156090       18.6348855696
  C        17.7302207851       11.3790309570       17.8343079264
  H        18.5105110997       11.3781547337       18.6051440446
  C        17.7395012320        0.5591310285        7.0431808664
  H        18.5099843632        0.5599917503        7.8237015828
  C        15.6006693044       15.7294501906       11.3804075745
  H        14.8215767092       14.9573609136       11.3815280066
  C        15.6364290568        4.9127212629        0.5584383917
  H        14.8656886879        4.1323366989        0.5581974734
  C         4.8059079086       15.7193833622        0.5646413743
  H         4.0356648852       14.9386912453        0.5638235619
  C         4.8065885931        4.9300120756       11.3852577487
  H         4.0283915808        4.1569877442       11.3869596814
  C         6.9280936211       15.7395107504       11.3823694881
  H         7.7116141162       14.9723040623       11.3794578918
  C         6.8998425736        4.9135336325        0.5649350275
  H         7.6681599297        4.1304556727        0.5655647427
  C        17.7393710133       15.7182365940        0.5600837887
  H        18.5101908241       14.9380139673        0.5610478100
  C        17.7283963131        4.9214282996       11.3783171466
  H        18.5081627064        4.1501860714       11.3777338114
  C        15.6000993935        7.0273449110       11.3789783768
  H        14.8210401346        7.7995745325       11.3798063799
  C        15.6350032810       17.8472369579        0.5592484954
  H        14.8634375565       18.6267595238        0.5588747654
  C         4.7989491340        7.0482282251        0.5643093740
  H         4.0289237722        7.8291351413        0.5637072035
  C         4.8012166743       17.8450402280       11.3857661171
  H         4.0235844643       18.6185624998       11.3873911647
  C         6.9338127989        7.0347352517       11.3816263135
  H         7.7163026537        7.8027394987       11.3785096587
  C         6.9078634945       17.8526060212        0.5658127496
  H         7.6769641591       18.6348863311        0.5667132800
  C        17.7395005492        7.0431800298        0.5591312088
  H        18.5099836896        7.8237006452        0.5599917384
  C        17.7302217075       17.8343083325       11.3790307959
  H        18.5105119374       18.6051443450       11.3781547433
 Kr        10.8799259497       11.3744375024       11.3744376759
