     409
 i =      96, E =    -5186.5821201589
  N         2.9547495438        5.2039620814       16.0057717661
  C         1.6360196654        5.4732724573       16.2735109612
  N        13.7798145787        5.1691072143        5.1691077948
  C        12.4591998379        5.4313061832        5.4313070237
  N        19.6376413786       17.5579205172       16.0023676761
  C        20.9555773762       17.2902388768       16.2742603809
  N         8.8230544423       17.6132393625        5.1573074709
  C        10.1400104903       17.3373779684        5.4263179222
  N        19.6345855524        5.2026559341        6.7590890799
  C        20.9523686833        5.4750694595        6.4911238987
  N         8.8230542913        5.1573080782       17.6132390483
  C        10.1400090593        5.4263181651       17.3373779284
  N         2.9516124066       17.5621911305        6.7592408323
  C         1.6341782051       17.2899460314        6.4890187486
  N        13.7843906910       17.5839192827       17.5839191173
  C        12.4634704967       17.3224603257       17.3224599377
  N        15.9433723084        3.0345964310        5.1905876905
  C        16.2085307224        1.7180469848        5.4674503400
  N        15.9046021350       13.8581433445       16.0118123465
  C        16.1741713013       12.5396203343       16.2793024950
  N        15.9416136620       19.7227177423       17.5674076511
  C        16.2073623654       21.0395530514       17.2917991071
  N        15.9029652222        8.8976155908        6.7416491568
  C        16.1730459533       10.2167165448        6.4757064302
  N         6.6411766311       19.7298450680        5.1924922174
  C         6.3725394990       21.0456752295        5.4680117964
  N         6.6790294595        8.9028518272       16.0149804850
  C         6.4051319021       10.2218178675       16.2762003178
  N         6.6470322426        3.0409438007       17.5773503871
  C         6.3802270824        1.7247948183       17.3010141865
  N         6.6891686394       13.8628442129        6.7674047843
  C         6.4136123709       12.5446998033        6.5034919911
  N         5.1067450793       16.0060819527        3.0441605102
  C         5.3739810240       16.2753182603        1.7256233256
  N         5.1243659457        5.2202619133       13.8627575582
  C         5.3916396201        5.4933626132       12.5450580707
  N        17.4851563648       16.0001644893       19.7201414893
  C        17.2158334445       16.2683875110       21.0386932334
  N        17.4693338876        5.1967388276        8.9016510059
  C        17.1956816585        5.4663282353       10.2181093948
  N         5.0983563546        6.7619570876       19.7255222232
  C         5.3654501557        6.4930096694       21.0441136745
  N         5.1127094112       17.5599987403        8.9076944249
  C         5.3823660942       17.2853753452       10.2244840480
  N        17.4861145002        6.7589037715        3.0373997079
  C        17.2162317245        6.4915205514        1.7190706307
  N        17.4715977925       17.5565738224       13.8552942216
  C        17.1971697285       17.2883121302       12.5385711904
  N         5.0982191940        3.0435192811        6.7626485852
  C         5.3650717558        1.7249093376        6.4935071542
  N         5.1177280484       13.8629440102       17.5554916741
  C         5.3848661295       12.5453162619       17.2828138012
  N        17.4857171550       19.7191038982        6.7611710465
  C        17.2164859993       21.0377436624        6.4929604830
  N        17.4692139779        8.9022936931       17.5556386220
  C        17.1954414453       10.2189848287       17.2875629640
  N         5.1071814216       19.7261544965       16.0075706933
  C         5.3744063197       21.0447508511       16.2761789425
  N         5.1209317002        8.9071638033        5.2151565242
  C         5.3899769027       10.2240585043        5.4904822428
  N        17.4846284796        3.0381599995       16.0011418503
  C        17.2151226899        1.7199559720       16.2692008983
  N        17.4716835835       13.8543548811        5.1975711562
  C        17.1973934434       12.5377187234        5.4665081887
  N         2.9552483173       16.0101072320       17.5659728781
  C         1.6371615949       16.2780135975       17.2941188317
  N        13.7660825278       16.0257540568        6.7253945684
  C        12.4520821501       16.3048758129        6.4481792094
  N        19.6367339935       16.0004815592        5.2010485074
  C        20.9542880564       16.2710194841        5.4722361722
  N         8.8154646099       16.0548712171       16.0548707885
  C        10.1344806329       16.3197591513       16.3197586002
  N        19.6347093192        6.7580246761       17.5553591870
  C        20.9528256937        6.4885253507       17.2867324221
  N         8.8150098302        6.7047112709        6.7047120131
  C        10.1330625916        6.4373226285        6.4373236027
  N         2.9522441292        6.7635556977        5.2075351908
  C         1.6341040093        6.4932443074        5.4771095649
  N        13.7660815302        6.7253954385       16.0257546808
  C        12.4520814844        6.4481797220       16.3048763075
  N        15.9432692325        5.1929436085       19.7222108522
  C        16.2087999517        5.4688156626       21.0388141613
  N        15.9021915233       16.0113010623        8.8991383709
  C        16.1723613014       16.2786537424       10.2179685211
  N        15.9405343488       17.5681563504        3.0361406843
  C        16.2065416023       17.2924161638        1.7193035997
  N        15.9058539824        6.7435230594       13.8571440703
  C        16.1750577530        6.4761987276       12.5384952180
  N         6.6382447518        5.1911616522        3.0393872885
  C         6.3711091202        5.4676492644        1.7235804664
  N         6.6824118876       16.0086767211       13.8629775425
  C         6.4069760651       16.2728617832       12.5447455132
  N         6.6492146091       17.5773920805       19.7300886103
  C         6.3813294594       17.3012725258       21.0462031110
  N         6.6871437386        6.7605436113        8.9025702513
  C         6.4125185723        6.4998481399       10.2213822158
  N        19.6347102039       17.5553583421        6.7580238714
  C        20.9528258288       17.2867322758        6.4885246890
  N         8.8252055704       17.6089895608       17.6089886935
  C        10.1418314071       17.3354706322       17.3354698427
  N         2.9522426857        5.2075349963        6.7635555340
  C         1.6341054779        5.4771090618        6.4932446276
  N        13.7822814198        5.1746128871       17.5862227250
  C        12.4615647788        5.4357074455       17.3236480696
  N         2.9552481369       17.5659742375       16.0101063881
  C         1.6371617810       17.2941201980       16.2780126110
  N        13.7822819895       17.5862219468        5.1746125730
  C        12.4615658770       17.3236478653        5.4357069010
  N        19.6367336757        5.2010486545       16.0004822224
  C        20.9542873600        5.4722367517       16.2710199358
  N         8.8198440750        5.1503891501        5.1503891819
  C        10.1373939102        5.4215385681        5.4215391887
  N         6.6492143826       19.7300891082       17.5773919721
  C         6.3813284070       21.0462040007       17.3012726375
  N         6.6871442095        8.9025702669        6.7605432404
  C         6.4125197466       10.2213814751        6.4998477061
  N         6.6382453677        3.0393884440        5.1911616152
  C         6.3711099941        1.7235796710        5.4676492367
  N         6.6824112694       13.8629775011       16.0086758372
  C         6.4069750313       12.5447466608       16.2728606009
  N        15.9405332965        3.0361412426       17.5681567054
  C        16.2065406220        1.7193034470       17.2924163436
  N        15.9058547830       13.8571434533        6.7435229124
  C        16.1750585129       12.5384951556        6.4761987572
  N        15.9432702331       19.7222102996        5.1929434490
  C        16.2088008320       21.0388133298        5.4688155818
  N        15.9021909864        8.8991384521       16.0113013571
  C        16.1723608184       10.2179690050       16.2786539209
  N        17.4857165258        6.7611715619       19.7191043014
  C        17.2164852025        6.4929606040       21.0377448155
  N        17.4692142231       17.5556379563        8.9022936347
  C        17.1954418237       17.2875626891       10.2189840577
  N         5.0982181669        6.7626488484        3.0435195322
  C         5.3650712797        6.4935067513        1.7249088798
  N         5.1177292321       17.5554928450       13.8629432229
  C         5.3848671292       17.2828155275       12.5453157595
  N        17.4846289524       16.0011414870        3.0381593593
  C        17.2151233935       16.2692006630        1.7199557824
  N        17.4716830640        5.1975711336       13.8543557199
  C        17.1973928030        5.4665079921       12.5377188488
  N         5.1071814653       16.0075709258       19.7261529923
  C         5.3744070327       16.2761786535       21.0447507605
  N         5.1209312873        5.2151569302        8.9071651799
  C         5.3899758933        5.4904829177       10.2240578851
  N        17.4851559765       19.7201420738       16.0001644920
  C        17.2158330821       21.0386942359       16.2683873149
  N        17.4693340840        8.9016503427        5.1967392163
  C        17.1956819961       10.2181078847        5.4663286906
  N         5.1067433244        3.0441621232       16.0060822098
  C         5.3739795379        1.7256237798       16.2753188827
  N         5.1243666011       13.8627569317        5.2202616869
  C         5.3916401716       12.5450573297        5.4933615649
  N        17.4861147182        3.0373993901        6.7589047780
  C        17.2162319913        1.7190702248        6.4915208650
  N        17.4715977078       13.8552945453       17.5565732590
  C        17.1971696543       12.5385708991       17.2883120623
  N         5.0983568015       19.7255221473        6.7619569999
  C         5.3654509695       21.0441145292        6.4930095872
  N         5.1127090404        8.9076956829       17.5599977014
  C         5.3823650514       10.2244834215       17.2853739786
  N        19.6345864268        6.7590882223        5.2026568535
  C        20.9523678892        6.4911234182        5.4750700135
  N         8.8153093841        6.7068071255       16.0546810525
  C        10.1339245319        6.4390811185       16.3187266872
  N         2.9516110094        6.7592415985       17.5621901699
  C         1.6341782723        6.4890198593       17.2899456630
  N        13.7652573800        6.7242409155        6.7242414985
  C        12.4510266295        6.4468452489        6.4468461572
  N         2.9547496880       16.0057721515        5.2039612791
  C         1.6360212797       16.2735111813        5.4732716316
  N        13.7666898720       16.0278590379       16.0278589793
  C        12.4529008118       16.3067602549       16.3067599812
  N        19.6376414303       16.0023679495       17.5579194601
  C        20.9555776064       16.2742609125       17.2902378552
  N         8.8153105547       16.0546809135        6.7068065801
  C        10.1339248265       16.3187265992        6.4390807270
  N         6.6470338688       17.5773503487        3.0409440783
  C         6.3802287900       17.3010138834        1.7247924865
  N         6.6891681592        6.7674049293       13.8628439290
  C         6.4136114460        6.5034925318       12.5447011358
  N         6.6411757356        5.1924925510       19.7298448044
  C         6.3725384034        5.4680120335       21.0456744085
  N         6.6790298725       16.0149811168        8.9028519119
  C         6.4051329522       16.2762013545       10.2218172243
  N        15.9416139799       17.5674078744       19.7227175268
  C        16.2073630786       17.2917991204       21.0395522020
  N        15.9029652108        6.7416489148        8.8976162900
  C        16.1730454790        6.4757063207       10.2167174856
  N        15.9433722513        5.1905870334        3.0345972422
  C        16.2085301397        5.4674498184        1.7180467713
  N        15.9046022641       16.0118125713       13.8581431864
  C        16.1741717156       16.2793026992       12.5396205464
 Zn        14.6083069534       14.7256984323       14.7256981556
 Cl        13.3893128912       13.4874545984       13.4874542511
 Zn        14.6586442586        3.8873568210        3.8873572246
 Cl        13.4373147533        2.6486927674        2.6486936686
 Zn         3.8289039859       14.7133049504        3.9193759534
 Cl         2.6057441935       13.4586539937        2.6992124612
 Zn         3.8289031477        3.9193772150       14.7133052333
 Cl         2.6057432428        2.6992132174       13.4586540290
 Zn         7.9940054133        8.0161647796       14.7649877915
 Cl         9.4201450173        9.1889982568       13.6936695978
 Zn         7.9348174692       18.8906275009        3.8831589000
 Cl         9.1168375928       20.1467233978        2.6264735362
 Zn        18.7712217787        8.0520924732        3.9072301983
 Cl        20.0071353442        9.2899593178        2.6840873935
 Zn        18.7713491427       18.8451117397       14.7107341804
 Cl        20.0063279347       20.0690517447       13.4712068790
 Zn         7.9940059757       14.7649874246        8.0161644978
 Cl         9.4201459477       13.6936702353        9.1889977181
 Zn         7.9348165047        3.8831595286       18.8906275614
 Cl         9.1168366414        2.6264734894       20.1467232087
 Zn        18.7713494023       14.7107343893       18.8451106501
 Cl        20.0063281072       13.4712070901       20.0690508410
 Zn        18.7712217856        3.9072299026        8.0520931725
 Cl        20.0071348681        2.6840870823        9.2899606195
 Zn        14.6074029696        8.0220947703        8.0220950347
 Cl        13.3857759408        9.2601926253        9.2601927551
 Zn        14.6580392676       18.8719383285       18.8719383333
 Cl        13.4301262147       20.1068471595       20.1068471076
 Zn         3.8131464109        8.0548596741       18.8517507587
 Cl         2.5845877635        9.2959162191       20.0793233971
 Zn         3.8131467195       18.8517513594        8.0548593150
 Cl         2.5845881733       20.0793238184        9.2959157300
 Zn        14.6080879980       14.7246113065        8.0244591854
 Cl        13.3872980943       13.4878780574        9.2635159667
 Zn        14.6577542251        3.8913944182       18.8739430809
 Cl        13.4316251820        2.6530040512       20.1075558250
 Zn         3.8244009843       14.7163419451       18.8525968566
 Cl         2.5973277813       13.4714112000       20.0788090397
 Zn         3.8206541809        3.9192890115        8.0576891520
 Cl         2.5944484053        2.6990418779        9.3085300563
 Zn         7.9983435250        8.0070787773        8.0070796093
 Cl         9.4356939644        9.1229012296        9.1229007679
 Zn         7.9407450535       18.8870781201       18.8870773443
 Cl         9.1296863525       20.1400634257       20.1400624538
 Zn        18.7704846579        8.0534693816       18.8427806986
 Cl        20.0056700061        9.2894535711       20.0696373942
 Zn        18.7704849056       18.8427796839        8.0534689814
 Cl        20.0056709077       20.0696365238        9.2894530260
 Zn        14.6080873376        8.0244596911       14.7246114766
 Cl        13.3872975658        9.2635160649       13.4878783342
 Zn        14.6577552228       18.8739426599        3.8913942856
 Cl        13.4316262441       20.1075555792        2.6530035148
 Zn         3.8206539125        8.0576887476        3.9192898286
 Cl         2.5944482485        9.3085303337        2.6990429526
 Zn         3.8244014881       18.8525985127       14.7163413232
 Cl         2.5973284303       20.0788097361       13.4714096226
 Zn         7.9908486240       14.7566493705       14.7566489694
 Cl         9.4079461023       13.6278077567       13.6278080529
 Zn         7.9251780744        3.8759372672        3.8759367807
 Cl         9.1021342503        2.6170048033        2.6170050114
 Zn        18.7715775059       14.7110364389        3.9065868722
 Cl        20.0071978177       13.4704520587        2.6854166556
 Zn        18.7715773097        3.9065870533       14.7110367072
 Cl        20.0071970920        2.6854167058       13.4704526639
 Zn         5.8909887633        5.9647849706       16.8084469611
 Zn        16.7056418014       16.7826533461       16.7826530070
 Zn        16.7067950323        5.9648988042        5.9648993854
 Zn         5.8909891643       16.8084466005        5.9647843303
 Zn         5.8898038667        5.9618281338        5.9618284394
 Zn        16.7058758916       16.7822449807        5.9670322402
 Zn         5.8926799444       16.8054172583       16.8054160894
 Zn        16.7058752677        5.9670327098       16.7822454764
  N         3.6998511210        5.9818635539       16.7851939949
  N        14.5193076667        5.9504970465        5.9504974062
  N        18.8911752008       16.7788881162       16.7788874271
  N         8.0725541219       16.8361184485        5.9330510651
  N        18.8884464912        5.9797106355        5.9797108084
  N         8.0725538170        5.9330509915       16.8361192252
  N         3.6998521407       16.7851937247        5.9818617526
  N        14.5219862104       16.8014747675       16.8014747925
  N        16.7159433815        3.7825408738        5.9718639055
  N        16.6895018299       14.6029484117       16.7842437275
  N        16.7141514250       18.9746077172       16.7860712461
  N        16.6873287239        8.1530879557        5.9682627831
  N         5.8702594944       18.9817954776        5.9750506652
  N         5.8971397100        8.1584822212       16.7919242434
  N         5.8767754432        3.7886814019       16.7940776439
  N         5.9086723916       14.6098558859        5.9900373703
  N         5.8767759730       16.7940763910        3.7886808214
  N         5.9086725271        5.9900380998       14.6098562178
  N        16.7141514554       16.7860715409       18.9746071927
  N        16.6873284660        5.9682627655        8.1530885660
  N         5.8702587378        5.9750511420       18.9817959974
  N         5.8971407449       16.7919239431        8.1584812933
  N        16.7159437795        5.9718632324        3.7825411613
  N        16.6895018752       16.7842442903       14.6029482405
  N         5.8684522325        3.7875439471        5.9744454905
  N         5.9021323586       14.6098792913       16.7854186294
  N        16.7152483586       18.9738138004        5.9745421668
  N        16.6870939540        8.1542118092       16.7836913720
  N         5.8783014354       18.9820522593       16.7948028188
  N         5.9055230974        8.1579450555        5.9827165306
  N        16.7134752742        3.7837280183       16.7868162567
  N        16.6900127801       14.6019996852        5.9702682421
  N         3.7018672334       16.7889746399       16.7889730001
  N        14.5207632065       16.8018423429        5.9540908293
  N        18.8894093758       16.7773629529        5.9791980567
  N         8.0737390620       16.8330181256       16.8330175381
  N        18.8894081067        5.9791982669       16.7773637425
  N         8.0709344676        5.9276763268        5.9276764443
  N         3.6988330505        5.9856232186        5.9856250717
  N        14.5207629219        5.9540916990       16.8018430522
  N        16.7152474402        5.9745424932       18.9738136193
  N        16.6870946356       16.7836910876        8.1542122973
  N        16.7134760016       16.7868157641        3.7837268803
  N        16.6900119950        5.9702685529       14.6020008778
  N         5.8684526880        5.9744443857        3.7875438975
  N         5.9021326862       16.7854199198       14.6098786824
  N         5.8783014470       16.7948035209       18.9820511112
  N         5.9055216807        5.9827157884        8.1579460327
  C        11.2883024518       15.7630220337       15.7630216680
  H        11.2736926523       14.9875190146       14.9875187268
  C        11.3028342250        4.8757495047        4.8757502861
  H        11.3116709148        4.1004067039        4.1004074978
  C         0.4759603069       15.7216435934        4.9229764968
  H         0.4762264162       14.9452307848        4.1483685824
  C         0.4759599955        4.9229772439       15.7216439043
  H         0.4762257911        4.1483690727       14.9452310484
  C        11.2883490218        6.9919236909       15.7596180885
  H        11.2748330986        7.7668476637       14.9835624019
  C        11.3060876658       17.8825287185        4.8817171532
  H        11.3158187284       18.6601900202        4.1086830538
  C         0.4731841881        7.0427220255        4.9263131102
  H         0.4723242633        7.8187570417        4.1512566657
  C         0.4762998681       17.8422530260       15.7257162189
  H         0.4754693385       18.6171326312       14.9495060936
  C        11.2883501001       15.7596178403        6.9919232234
  H        11.2748338565       14.9835622391        7.7668472024
  C        11.3060867354        4.8817172898       17.8825288189
  H        11.3158179170        4.1086832265       18.6601899081
  C         0.4763000744       15.7257168282       17.8422515671
  H         0.4754698794       14.9495064171       18.6171310286
  C         0.4731838443        4.9263123698        7.0427225492
  H         0.4723241173        4.1512560582        7.8187574149
  C        11.2883876429        6.9922554010        6.9922566393
  H        11.2762586804        7.7677467522        7.7677483134
  C        11.3085951269       17.8795373933       17.8795366922
  H        11.3189820651       18.6548971535       18.6548963935
  C         0.4726080666        7.0391630337       17.8385147716
  H         0.4706942051        7.8149230022       18.6139102627
  C         0.4726085247       17.8385149454        7.0391619141
  H         0.4706946544       18.6139106323        7.8149218189
  C        15.6192102994       11.3793084238       15.7320984912
  H        14.8397953069       11.3804394862       14.9603614107
  C        15.6612861903        0.5580911100        4.9141936296
  H        14.8913691941        0.5578538541        4.1328781452
  C         4.8367642858       11.3855986551        4.9456629813
  H         4.0585036691       11.3873018184        4.1723874686
  C         4.8289071681        0.5649198610       15.7196796023
  H         4.0600037488        0.5642939851       14.9376441501
  C        15.6201361716       11.3778976738        7.0232309316
  H        14.8406957182       11.3786707791        7.7950693553
  C        15.6592672149        0.5591328377       17.8455235785
  H        14.8884710290        0.5589045591       18.6259238356
  C         4.8297652262       11.3860428335       17.8307604129
  H         4.0519866071       11.3880027111       18.6043930606
  C         4.8199453197        0.5643366903        7.0492920749
  H         4.0511479294        0.5639151661        7.8313796405
  C         6.9592980918       11.3820919886       15.7280960340
  H         7.7460419472       11.3789328402       14.9647205876
  C         6.9178396437        0.5648597600        4.9121761973
  H         7.6852142200        0.5655463377        4.1281678079
  C        17.7501420509       11.3775923759        4.9194171904
  H        18.5303719787       11.3771931035        4.1486812803
  C        17.7610773281        0.5596530210       15.7135556127
  H        18.5311649797        0.5605353249       14.9327196813
  C         6.9654513897       11.3819469328        7.0484914987
  H         7.7501903634       11.3789123941        7.8136075951
  C         6.9269423017        0.5657960621       17.8563462974
  H         7.6948575348        0.5665538424       18.6397266781
  C        17.7503625392       11.3782486635       17.8348093230
  H        18.5312710110       11.3775043941       18.6050051841
  C        17.7614554190        0.5587807904        7.0479586849
  H        18.5310658773        0.5596822602        7.8292219728
  C        15.6192104927       15.7320982022       11.3793082344
  H        14.8397956684       14.9603613292       11.3804394794
  C        15.6612856893        4.9141937519        0.5580917920
  H        14.8913684338        4.1328780601        0.5578543392
  C         4.8289086063       15.7196793826        0.5649187117
  H         4.0600049331       14.9376438831        0.5642930763
  C         4.8367628193        4.9456633959       11.3855995294
  H         4.0585024616        4.1723883348       11.3873032326
  C         6.9592989137       15.7280973949       11.3820919101
  H         7.7460428335       14.9647217185       11.3789326753
  C         6.9178391059        4.9121756692        0.5648591317
  H         7.6852131224        4.1281675909        0.5655456514
  C        17.7610781261       15.7135552722        0.5596524601
  H        18.5311655214       14.9327195001        0.5605343353
  C        17.7501411020        4.9194171408       11.3775931173
  H        18.5303712522        4.1486808469       11.3771941661
  C        15.6201358077        7.0232305812       11.3778980919
  H        14.8406951474        7.7950692117       11.3786711292
  C        15.6592678402       17.8455239422        0.5591326594
  H        14.8884720000       18.6259240523        0.5589045054
  C         4.8199442779        7.0492922516        0.5643365088
  H         4.0511470759        7.8313796353        0.5639153663
  C         4.8297668442       17.8307618113       11.3860423033
  H         4.0519880953       18.6043948738       11.3880020584
  C         6.9654506016        7.0484923947       11.3819472563
  H         7.7501893417        7.8136082776       11.3789128796
  C         6.9269433338       17.8563454723        0.5657952753
  H         7.6948589813       18.6397261979        0.5665528854
  C        17.7614546813        7.0479583719        0.5587814300
  H        18.5310653845        7.8292217475        0.5596827763
  C        17.7503630964       17.8348095489       11.3782482833
  H        18.5312713185       18.6050051504       11.3775041024
 Kr         7.9148696166       11.3631820996       11.3631813330
