     409
 i =      96, E =    -5186.5875219293
  N         2.9823104004        5.2087660363       16.0254586156
  C         1.6639961574        5.4795723741       16.2917630315
  N        13.7911793604        5.2053200633        5.2053207944
  C        12.4739802467        5.4768950272        5.4768973001
  N        19.6742681233       17.5719752706       16.0159212795
  C        20.9922589036       17.3029505810       16.2868934740
  N         8.8453518100       17.5767056413        5.2152160698
  C        10.1632407966       17.3043134407        5.4812008118
  N        19.6541526030        5.2015281382        6.7579336709
  C        20.9721404298        5.4760102418        6.4921576134
  N         8.8453533150        5.2152144628       17.5767072742
  C        10.1632361706        5.4812010913       17.3043132803
  N         2.9787917243       17.5806577419        6.7659632441
  C         1.6614679513       17.3073868725        6.4960057753
  N        13.8100467699       17.5721672328       17.5721664808
  C        12.4922777925       17.3029452129       17.3029446851
  N        15.9395499712        3.0449330778        5.2024948332
  C        16.2094133736        1.7271834029        5.4732390548
  N        15.9602395645       13.8647529036       16.0150548749
  C        16.2293702890       12.5473720508       16.2845286556
  N        15.9603735687       19.7272618995       17.5702225387
  C        16.2263892626       21.0453232556       17.2976377617
  N        15.9471392521        8.9105889943        6.7589145008
  C        16.2176944819       10.2275425884        6.4885274678
  N         6.6943991642       19.7396785382        5.2139022092
  C         6.4230263362       21.0573232662        5.4842378653
  N         6.6919772293        8.9158822081       16.0192120815
  C         6.4236769418       10.2335131197       16.2891495522
  N         6.6967941769        3.0568344549       17.5817638353
  C         6.4311488040        1.7382773892       17.3095278826
  N         6.6958845951       13.8733054317        6.7586585527
  C         6.4254704654       12.5560251942        6.4900329455
  N         5.1408348979       16.0256333787        3.0541336610
  C         5.4149922270       16.2936063044        1.7367014486
  N         5.1340458089        5.2097234498       13.8732637613
  C         5.4046347437        5.4790564285       12.5557554436
  N        17.5156906369       16.0136241729       19.7286674065
  C        17.2420343383       16.2812277878       21.0463995776
  N        17.4999249668        5.2009832164        8.9088893298
  C        17.2322025105        5.4712471167       10.2265711992
  N         5.1372714066        6.7686059860       19.7377799595
  C         5.4066342959        6.4999372509       21.0559393187
  N         5.1388522618       17.5782241999        8.9175840683
  C         5.4098588172       17.3073712100       10.2347242328
  N        17.4954965309        6.7577033379        3.0458540595
  C        17.2257087923        6.4888119061        1.7280439857
  N        17.5166912003       17.5704924079       13.8638867597
  C        17.2455086517       17.3004235611       12.5465101075
  N         5.1301393648        3.0549281596        6.7702903680
  C         5.4025487010        1.7372617440        6.5010815735
  N         5.1466050688       13.8726239296       17.5797080423
  C         5.4134987707       12.5548232479       17.3081241106
  N        17.5032451390       19.7297984395        6.7561607758
  C        17.2298854437       21.0472269235        6.4880737356
  N        17.5078487895        8.9085815378       17.5723336702
  C        17.2413699492       10.2264256261       17.3010669218
  N         5.1489332436       19.7371097266       16.0237776013
  C         5.4189888571       21.0551447026       16.2927503394
  N         5.1293483765        8.9183526617        5.2179032134
  C         5.4025265467       10.2359683078        5.4834443139
  N        17.5076443672        3.0460221065       16.0125195708
  C        17.2378638156        1.7278351213       16.2807794834
  N        17.5074889165       13.8636807319        5.2027432540
  C        17.2358928305       12.5463421673        5.4719324618
  N         2.9916400480       16.0246056682       17.5806253351
  C         1.6738100376       16.2910870965       17.3070803527
  N        13.8018965209       16.0153159763        6.7597276102
  C        12.4843592510       16.2859006759        6.4917278958
  N        19.6651132381       16.0165098506        5.2035429991
  C        20.9824374003       16.2871553858        5.4765831557
  N         8.8529397995       16.0196683176       16.0196678038
  C        10.1706721574       16.2887035149       16.2887027618
  N        19.6610931125        6.7586128198       17.5738640038
  C        20.9797585745        6.4922551635       17.3036918944
  N         8.8386057511        6.7665387283        6.7665393834
  C        10.1556106155        6.4955886440        6.4955903048
  N         2.9718924984        6.7677296637        5.2117942200
  C         1.6539370967        6.4969232432        5.4809000984
  N        13.8018973217        6.7597243471       16.0153217624
  C        12.4843575116        6.4917278702       16.2859006891
  N        15.9484325461        5.1997376715       19.7276849661
  C        16.2140027022        5.4719821326       21.0459876716
  N        15.9543787355       16.0149111116        8.9107084090
  C        16.2263045185       16.2843195017       10.2276794109
  N        15.9517558394       17.5683746560        3.0439889542
  C        16.2220155458       17.2968862071        1.7265240007
  N        15.9525217056        6.7592395395       13.8643464141
  C        16.2205733204        6.4885988080       12.5469977740
  N         6.6840383437        5.2132117148        3.0568895173
  C         6.4177758848        5.4843883761        1.7386679357
  N         6.6993193901       16.0210688520       13.8709248140
  C         6.4272836151       16.2899837269       12.5536797432
  N         6.7058330795       17.5795024113       19.7384510282
  C         6.4354456767       17.3084665459       21.0562913019
  N         6.6911507209        6.7678828156        8.9196867633
  C         6.4233534096        6.4945291369       10.2365432229
  N        19.6610969429       17.5738624994        6.7586114240
  C        20.9797566160       17.3036913581        6.4922575986
  N         8.8549071748       17.5758296044       17.5758289474
  C        10.1721067043       17.3047437379       17.3047428367
  N         2.9718921195        5.2117941511        6.7677293560
  C         1.6539365251        5.4808994856        6.4969235030
  N        13.8007453318        5.2023764712       17.5701941079
  C        12.4834612378        5.4752026237       17.3014429525
  N         2.9916395470       17.5806264363       16.0246049934
  C         1.6738105388       17.3070806223       16.2910871156
  N        13.8007447873       17.5701945002        5.2023735888
  C        12.4834657772       17.3014425633        5.4752031690
  N        19.6651131719        5.2035473416       16.0165144051
  C        20.9824352141        5.4765809680       16.2871561500
  N         8.8353173105        5.2111023444        5.2111036004
  C        10.1534392768        5.4796792419        5.4796811946
  N         6.7058332530       19.7384523666       17.5795003313
  C         6.4354458185       21.0562924859       17.3084656992
  N         6.6911510022        8.9196872172        6.7678836010
  C         6.4233529388       10.2365434875        6.4945293940
  N         6.6840366241        3.0568877292        5.2132126540
  C         6.4177752626        1.7386705403        5.4843881447
  N         6.6993200830       13.8709272201       16.0210678945
  C         6.4272838951       12.5536789749       16.2899834213
  N        15.9517594728        3.0439917140       17.5683736717
  C        16.2220130307        1.7265209273       17.2968855939
  N        15.9525159323       13.8643469719        6.7592375167
  C        16.2205731431       12.5469956695        6.4885983723
  N        15.9484274722       19.7276829434        5.1997330009
  C        16.2140043382       21.0459864976        5.4719829645
  N        15.9543848007        8.9107115430       16.0149117538
  C        16.2263038524       10.2276751839       16.2843182527
  N        17.5032442283        6.7561604384       19.7297952632
  C        17.2298829260        6.4880728377       21.0472325074
  N        17.5078428595       17.5723335197        8.9085830239
  C        17.2413710057       17.3010687680       10.2264224709
  N         5.1301411163        6.7702892475        3.0549272973
  C         5.4025486110        6.5010823381        1.7372631266
  N         5.1466037315       17.5797094187       13.8726233051
  C         5.4134991361       17.3081237426       12.5548219299
  N        17.5076492451       16.0125125014        3.0460195502
  C        17.2378666712       16.2807800590        1.7278359214
  N        17.5074924545        5.2027476045       13.8636815231
  C        17.2358930016        5.4719329695       12.5463422085
  N         5.1489335633       16.0237799242       19.7371095446
  C         5.4189891619       16.2927515520       21.0551428246
  N         5.1293487309        5.2179026263        8.9183515086
  C         5.4025267208        5.4834434353       10.2359695864
  N        17.5156916322       19.7286686549       16.0136210199
  C        17.2420316087       21.0463989348       16.2812285268
  N        17.4999255820        8.9088878820        5.2009806402
  C        17.2322010979       10.2265714953        5.4712446879
  N         5.1408314540        3.0541340521       16.0256323733
  C         5.4149906400        1.7367024525       16.2936063254
  N         5.1340466283       13.8732661157        5.2097238264
  C         5.4046349131       12.5557552139        5.4790569680
  N        17.4954972354        3.0458558533        6.7577036094
  C        17.2257100178        1.7280392825        6.4888140974
  N        17.5166882530       13.8638858618       17.5704876921
  C        17.2455098545       12.5465135632       17.3004209475
  N         5.1372769810       19.7377813999        6.7686002463
  C         5.4066348096       21.0559370021        6.4999365958
  N         5.1388489009        8.9175849229       17.5782271134
  C         5.4098585323       10.2347262415       17.3073711175
  N        19.6541517688        6.7579338719        5.2015280385
  C        20.9721407148        6.4921568843        5.4760112578
  N         8.8469692654        6.7695674485       16.0199360394
  C        10.1641418992        6.4966606071       16.2879165737
  N         2.9787894055        6.7659656693       17.5806585767
  C         1.6614679278        6.4960053049       17.3073862541
  N        13.7939284945        6.7616022168        6.7616021300
  C        12.4759344854        6.4929887780        6.4929907798
  N         2.9823111069       16.0254613552        5.2087666834
  C         1.6639980819       16.2917638872        5.4795728095
  N        13.8080033395       16.0162991524       16.0162981021
  C        12.4909198028       16.2869657478       16.2869652752
  N        19.6742699749       16.0159236936       17.5719720186
  C        20.9922566442       16.2868928887       17.3029507438
  N         8.8469678795       16.0199395829        6.7695632296
  C        10.1641443805       16.2879156132        6.4966610186
  N         6.6967951679       17.5817619290        3.0568335437
  C         6.4311499142       17.3095274134        1.7382758805
  N         6.6958869889        6.7586617477       13.8733054809
  C         6.4254705831        6.4900328388       12.5560243015
  N         6.6943976849        5.2139041977       19.7396816550
  C         6.4230262008        5.4842382110       21.0573207470
  N         6.6919760040       16.0192134752        8.9158794784
  C         6.4236769879       16.2891499067       10.2335131203
  N        15.9603748353       17.5702232326       19.7272596466
  C        16.2263902520       17.2976385604       21.0453267914
  N        15.9471397331        6.7589160468        8.9105883144
  C        16.2176967069        6.4885291355       10.2275436789
  N        15.9395478220        5.2024923379        3.0449341103
  C        16.2094134486        5.4732376436        1.7271848369
  N        15.9602400685       16.0150572785       13.8647496381
  C        16.2293688493       16.2845307701       12.5473745657
 Zn        14.6656036163       14.7222828270       14.7222820246
 Cl        13.4308517268       13.4912794888       13.4912789598
 Zn        14.6513345137        3.9091285181        3.9091294057
 Cl        13.4086975546        2.6818774160        2.6818785067
 Zn         3.8451226253       14.7338413604        3.9133677995
 Cl         2.6111615548       13.5003011478        2.6839362471
 Zn         3.8451210781        3.9133694435       14.7338406511
 Cl         2.6111601954        2.6839367513       13.5003014918
 Zn         7.9856111396        8.0580529622       14.7241466421
 Cl         9.1947255590        9.2962317120       13.4744355430
 Zn         7.9884734355       18.8743429287        3.9258383113
 Cl         9.2274718941       20.0993224928        2.6923038353
 Zn        18.7874148124        8.0491616748        3.9056483281
 Cl        20.0198086932        9.2822918583        2.6737330581
 Zn        18.8115610783       18.8656511654       14.7231063226
 Cl        20.0404784004       20.0933512464       13.4832047906
 Zn         7.9856125320       14.7241473534        8.0580520661
 Cl         9.1947262377       13.4744360537        9.2962311023
 Zn         7.9884705010        3.9258397948       18.8743425034
 Cl         9.2274699034        2.6923048843       20.0993222360
 Zn        18.8115608775       14.7231084204       18.8656496729
 Cl        20.0404786749       13.4832050085       20.0933501209
 Zn        18.7874145594        3.9056467474        8.0491618194
 Cl        20.0198078212        2.6737336911        9.2822929403
 Zn        14.6567253646        8.0545964028        8.0545960682
 Cl        13.4305515891        9.2900085355        9.2900083034
 Zn        14.6698068398       18.8663651911       18.8663652932
 Cl        13.4343561557       20.0969767325       20.0969767107
 Zn         3.8441296700        8.0585511994       18.8729014150
 Cl         2.6169880627        9.2985218237       20.1027644940
 Zn         3.8441307475       18.8729010903        8.0585495082
 Cl         2.6169897135       20.1027635219        9.2985202380
 Zn        14.6613123054       14.7217829941        8.0541002004
 Cl        13.4255010628       13.4920663130        9.2854973941
 Zn        14.6609403143        3.9048062243       18.8629265452
 Cl        13.4214938617        2.6755441358       20.0910949929
 Zn         3.8536093719       14.7318421145       18.8742065945
 Cl         2.6231990627       13.4964587565       20.1052421965
 Zn         3.8387442169        3.9217937996        8.0595970060
 Cl         2.6090629076        2.6918324075        9.2977837180
 Zn         7.9849034348        8.0607131294        8.0607132917
 Cl         9.2498333501        9.2765650264        9.2765652213
 Zn         7.9982623397       18.8719802850       18.8719790796
 Cl         9.2410420189       20.0988898584       20.0988890474
 Zn        18.7945863898        8.0490703334       18.8699440465
 Cl        20.0296927809        9.2837932358       20.0974265379
 Zn        18.7945866174       18.8699409910        8.0490689364
 Cl        20.0296930215       20.0974247811        9.2837927458
 Zn        14.6613122952        8.0540986656       14.7217848173
 Cl        13.4255013245        9.2854957047       13.4920679920
 Zn        14.6609406054       18.8629244869        3.9048065818
 Cl        13.4214944867       20.0910944499        2.6755439836
 Zn         3.8387441048        8.0595965685        3.9217953031
 Cl         2.6090622863        9.2977835502        2.6918324040
 Zn         3.8536095720       18.8742074378       14.7318400186
 Cl         2.6231992772       20.1052424383       13.4964569873
 Zn         7.9934437396       14.7254944173       14.7254942125
 Cl         9.2147633102       13.4878293889       13.4878298062
 Zn         7.9709427719        3.9197392625        3.9197386949
 Cl         9.2092577740        2.6897608280        2.6897610143
 Zn        18.8023555003       14.7228845640        3.9094633967
 Cl        20.0299121039       13.4846210247        2.6785440499
 Zn        18.8023541752        3.9094625869       14.7228858654
 Cl        20.0299106049        2.6785438239       13.4846234592
 Zn         5.9094788122        5.9923426202       16.8072044646
 Zn        16.7382800904       16.7915169638       16.7915178880
 Zn        16.7197912577        5.9794927123        5.9794943478
 Zn         5.9094806723       16.8072053283        5.9923422291
 Zn         5.9034256829        5.9945384546        5.9945387547
 Zn        16.7270420446       16.7913925861        5.9780592392
 Zn         5.9262852512       16.8068247630       16.8068236785
 Zn        16.7270389483        5.9780551767       16.7913959677
  N         3.7268928099        5.9870238270       16.8048918689
  N        14.5387595111        5.9828261740        5.9828277555
  N        18.9276706411       16.7934363614       16.7934420651
  N         8.0993332343       16.7994842860        5.9941369662
  N        18.9078263888        5.9773836134        5.9773866075
  N         8.0993270872        5.9941344799       16.7994852420
  N         3.7268900537       16.8048923686        5.9870230170
  N        14.5554824403       16.7938071978       16.7938092066
  N        16.7178049287        3.7920796534        5.9795664691
  N        16.7388835705       14.6106514189       16.7927349475
  N        16.7401014468       18.9812941807       16.7933834576
  N        16.7228720463        8.1631512820        5.9801027872
  N         5.9161733438       18.9922380110        5.9908632967
  N         5.9148459275        8.1705049533       16.7989151905
  N         5.9163313570        3.8020581848       16.8049686272
  N         5.9147615999       14.6199968655        5.9844541433
  N         5.9163336067       16.8049675060        3.8020558594
  N         5.9147586541        5.9844519111       14.6199988481
  N        16.7401044488       16.7933806048       18.9812978449
  N        16.7228693526        5.9800963621        8.1631503634
  N         5.9161773106        5.9908583733       18.9922351667
  N         5.9148450233       16.7989168246        8.1705077744
  N        16.7178075214        5.9795660195        3.7920835599
  N        16.7388821237       16.7927273370       14.6106517703
  N         5.9055163746        3.8026500600        5.9910464879
  N         5.9243972422       14.6184847657       16.8011318841
  N        16.7280586113       18.9819797576        5.9768067869
  N        16.7297503952        8.1630226850       16.7941069979
  N         5.9272381715       18.9913701129       16.8022348992
  N         5.9086018700        8.1726668868        5.9949601580
  N        16.7297400153        3.7915871706       16.7913242268
  N        16.7308451102       14.6103714649        5.9815026676
  N         3.7383074596       16.8046107928       16.8046102745
  N        14.5475236305       16.7921819531        5.9799115298
  N        18.9166487345       16.7952226504        5.9793534433
  N         8.1075968308       16.7982538742       16.7982539394
  N        18.9166482194        5.9793433429       16.7952202377
  N         8.0903807879        5.9896610615        5.9896617160
  N         3.7182947464        5.9902618329        5.9902628027
  N        14.5475159062        5.9799117319       16.7921797735
  N        16.7280486248        5.9768018732       18.9819838433
  N        16.7297677003       16.7941065286        8.1630225590
  N        16.7297430809       16.7913274184        3.7915935591
  N        16.7308327838        5.9814942170       14.6103694264
  N         5.9055135170        5.9910496628        3.8026492953
  N         5.9243994963       16.8011296567       14.6184848288
  N         5.9272364346       16.8022356452       18.9913689016
  N         5.9086029034        5.9949601333        8.1726674156
  C        11.3299912095       15.7372478118       15.7372472605
  H        11.3292559901       14.9616591243       14.9616594892
  C        11.3123377317        4.9279027164        4.9279050069
  H        11.3099370073        4.1524107093        4.1524137512
  C         0.5049498142       15.7385957608        4.9285595536
  H         0.5084567825       14.9626571492        4.1534057851
  C         0.5049447155        4.9285609531       15.7385976862
  H         0.5084562095        4.1534057301       14.9626598747
  C        11.3248728852        7.0445490955       15.7361078577
  H        11.3267374026        7.8199062508       14.9603412454
  C        11.3226089164       17.8531231855        4.9274408531
  H        11.3213712939       18.6284514904        4.1516413996
  C         0.4931139831        7.0455163343        4.9291187434
  H         0.4935119748        7.8218519103        4.1543864269
  C         0.5130475807       17.8548171185       15.7383801149
  H         0.5132908286       18.6302622068       14.9627186316
  C        11.3248687421       15.7361064987        7.0445486138
  H        11.3267387358       14.9603402152        7.8199064812
  C        11.3226105856        4.9274412297       17.8531240806
  H        11.3213684422        4.1516415011       18.6284514189
  C         0.5130465605       15.7383811877       17.8548153452
  H         0.5132914101       14.9627197062       18.6302600657
  C         0.4931138208        4.9291180411        7.0455164815
  H         0.4935122835        4.1543859080        7.8218516944
  C        11.3169977509        7.0449219617        7.0449237101
  H        11.3176501902        7.8205676039        7.8205698440
  C        11.3330268303       17.8543214327       17.8543206644
  H        11.3340976893       18.6298783569       18.6298784083
  C         0.4989011960        7.0450322362       17.8550001348
  H         0.4961632259        7.8211296626       18.6299809633
  C         0.4989035036       17.8549988541        7.0450318790
  H         0.4961643766       18.6299772365        7.8211295347
  C        15.6774708467       11.3882227112       15.7333933369
  H        14.9018903714       11.3892241414       14.9577857940
  C        15.6603884039        0.5658086583        4.9231720873
  H        14.8838249942        0.5646627925        4.1486254718
  C         4.8507110452       11.3954142303        4.9327747140
  H         4.0717678563       11.3944097702        4.1606481027
  C         4.8671604744        0.5752132788       15.7426459031
  H         4.0912703376        0.5739876063       14.9673935206
  C        15.6686758362       11.3879073214        7.0396658429
  H        14.8935486794       11.3885440050        7.8157341403
  C        15.6732323608        0.5651115364       17.8468767047
  H        14.8972134171        0.5639027998       18.6220097481
  C         4.8622000661       11.3954750864       17.8592410905
  H         4.0883100690       11.3962190368       18.6363964622
  C         4.8547974736        0.5754604205        7.0512439712
  H         4.0796553563        0.5734571692        7.8271561494
  C         6.9744267413       11.3929756419       15.7371976954
  H         7.7476346610       11.3918956470       14.9591953431
  C         6.9708913250        0.5792588525        4.9341235315
  H         7.7463048473        0.5816827860        4.1583901865
  C        17.7840396725       11.3857684462        4.9202554800
  H        18.5587280780       11.3846166845        4.1438596874
  C        17.7891965004        0.5679865517       15.7297395334
  H        18.5637812127        0.5697605379       14.9532271026
  C         6.9792859442       11.3967461818        7.0386816204
  H         7.7602796663       11.3982874817        7.8086089683
  C         6.9841599794        0.5780682213       17.8583820342
  H         7.7601796713        0.5795117433       18.6334175416
  C        17.7941378792       11.3856299680       17.8511854290
  H        18.5696890674       11.3843676136       18.6267277506
  C        17.7777823307        0.5684226631        7.0392139382
  H        18.5535145112        0.5702327336        7.8146167589
  C        15.6774679204       15.7333954167       11.3882262927
  H        14.9018911931       14.9577842474       11.3892236507
  C        15.6603888863        4.9231720373        0.5658062541
  H        14.8838250852        4.1486253580        0.5646650613
  C         4.8671616880       15.7426467142        0.5752133362
  H         4.0912714053       14.9673941867        0.5739869185
  C         4.8507114727        4.9327744057       11.3954129885
  H         4.0717686785        4.1606479229       11.3944091566
  C         6.9744270185       15.7371974660       11.3929738328
  H         7.7476349434       14.9591951060       11.3918948443
  C         6.9708907902        4.9341250597        0.5792581157
  H         7.7463041224        4.1583917782        0.5816821717
  C        17.7891979732       15.7297397994        0.5679822963
  H        18.5637838794       14.9532285360        0.5697608136
  C        17.7840432601        4.9202598337       11.3857702260
  H        18.5587273815        4.1438596459       11.3846167999
  C        15.6686801334        7.0396693145       11.3879109335
  H        14.8935482507        7.8157333829       11.3885441080
  C        15.6732335775       17.8468767659        0.5651098803
  H        14.8972155003       18.6220110035        0.5639042954
  C         4.8547967284        7.0512454271        0.5754644579
  H         4.0796540657        7.8271577649        0.5734574419
  C         4.8622002254       17.8592409284       11.3954712117
  H         4.0883104090       18.6363960092       11.3962182598
  C         6.9792861462        7.0386815619       11.3967436724
  H         7.7602797549        7.8086086347       11.3982874276
  C         6.9841611116       17.8583828704        0.5780683873
  H         7.7601811190       18.6334187121        0.5795103804
  C        17.7777819354        7.0392142328        0.5684237416
  H        18.5535144860        7.8146184649        0.5702340653
  C        17.7941351351       17.8511880332       11.3856276717
  H        18.5696895503       18.6267261845       11.3843674539
 Kr         5.8915101207       10.6087904126       10.6087902888
