     409
 i =      96, E =    -5186.5790784436
  N         2.9115837817        5.2036169165       16.0007303090
  C         1.5936934703        5.4735216485       16.2713425291
  N        13.7180555975        5.1398503130        5.1398504252
  C        12.4018392207        5.4145881646        5.4145862001
  N        19.5982105878       17.5668770127       16.0107438821
  C        20.9161951550       17.2942279620       16.2781206194
  N         8.7636792501       17.5884466346        5.1791858996
  C        10.0847773258       17.3252936274        5.4370863233
  N        19.5902704240        5.2007876830        6.7573451015
  C        20.9083060600        5.4736382578        6.4897885893
  N         8.7636787433        5.1791861786       17.5884470662
  C        10.0847814124        5.4370858661       17.3252958351
  N         2.9121180692       17.5550361931        6.7612340019
  C         1.5941226659       17.2869104966        6.4900470884
  N        13.7260621787       17.6124981410       17.6124995792
  C        12.4100958636       17.3376399519       17.3376416872
  N        15.8994384527        3.0353105117        5.1836643409
  C        16.1652064234        1.7199231372        5.4616814328
  N        15.8772479060       13.8617379945       16.0153852729
  C        16.1491243235       12.5423454252       16.2797885303
  N        15.9019052261       19.7272428469       17.5751960844
  C        16.1666119115       21.0431542265       17.2968200110
  N        15.8617856412        8.8972857993        6.7452685801
  C        16.1335489331       10.2172251341        6.4845029881
  N         6.6003188300       19.7254209837        5.1957133482
  C         6.3310041592       21.0417409300        5.4696893428
  N         6.6462894566        8.9026233200       16.0117156951
  C         6.3757894857       10.2212782315       16.2791592758
  N         6.6060531120        3.0394888057       17.5742736717
  C         6.3391873593        1.7225819350       17.2997756622
  N         6.6411660872       13.8596509864        6.7489207849
  C         6.3692346790       12.5412384464        6.4831808405
  N         5.0630261611       16.0064263198        3.0410916841
  C         5.3311303877       16.2760832324        1.7228549864
  N         5.0763138040        5.2018821652       13.8575785210
  C         5.3474287163        5.4729609486       12.5408146160
  N        17.4437129821       16.0054726150       19.7241941635
  C        17.1734445740       16.2717629215       21.0422593976
  N        17.4270363666        5.1998929691        8.9039615757
  C        17.1560930093        5.4751027092       10.2204626447
  N         5.0572669450        6.7634370277       19.7210298204
  C         5.3230330688        6.4936224582       21.0400558549
  N         5.0788259250       17.5557344488        8.9056471104
  C         5.3525905268       17.2879878195       10.2223589093
  N        17.4394870174        6.7551243397        3.0396632729
  C        17.1709938564        6.4876106306        1.7214966122
  N        17.4409717394       17.5619506360       13.8594447640
  C        17.1710511417       17.2899442865       12.5421882114
  N         5.0532711893        3.0402091017        6.7608068078
  C         5.3213319321        1.7216698122        6.4921152724
  N         5.0802025257       13.8585234787       17.5593961031
  C         5.3528141054       12.5417680617       17.2899423556
  N        17.4418510440       19.7244981430        6.7535209087
  C        17.1717562983       21.0422703851        6.4864179054
  N        17.4406876460        8.9046175100       17.5693754969
  C        17.1710455469       10.2211554437       17.2937458684
  N         5.0653539053       19.7229447731       16.0051141344
  C         5.3320588257       21.0415956293       16.2751741738
  N         5.0745164904        8.9048943089        5.2030629928
  C         5.3470152325       10.2213383982        5.4736876316
  N        17.4408135764        3.0403029734       16.0030367379
  C        17.1723297355        1.7219755819       16.2702722989
  N        17.4272060496       13.8593547495        5.2084332429
  C        17.1561045790       12.5419018760        5.4794189241
  N         2.9155587260       16.0037958276       17.5595321597
  C         1.5976739564       16.2747251655       17.2907433789
  N        13.7354763016       16.0575254892        6.6977716687
  C        12.4155675179       16.3205417895        6.4339082651
  N        19.5935281039       16.0076846359        5.1996397417
  C        20.9118469065       16.2748516137        5.4713610117
  N         8.7864402959       16.0283891659       16.0283881534
  C        10.1002301525       16.3076384000       16.3076379218
  N        19.5947535905        6.7540333419       17.5660577726
  C        20.9124763138        6.4865363201       17.2919487241
  N         8.7793949371        6.7262198537        6.7262169604
  C        10.0926908500        6.4462182771        6.4462140336
  N         2.9081760411        6.7630512595        5.2066813147
  C         1.5902457210        6.4926905334        5.4765854642
  N        13.7354730441        6.6977732036       16.0575285410
  C        12.4155740190        6.4339102271       16.3205423057
  N        15.9005256591        5.1830206527       19.7270449703
  C        16.1654474128        5.4608562678       21.0428847791
  N        15.8772627524       16.0227152916        8.8984459107
  C        16.1492111437       16.2836386360       10.2184029053
  N        15.9000047012       17.5732889923        3.0361671630
  C        16.1658766094       17.2955687044        1.7205340056
  N        15.8624229518        6.7549180394       13.8610148393
  C        16.1337964918        6.4892968459       12.5418440460
  N         6.5957743801        5.1924097114        3.0373713517
  C         6.3289734531        5.4680016197        1.7209306228
  N         6.6464410195       16.0137511850       13.8609602930
  C         6.3754311111       16.2805481170       12.5426441039
  N         6.6088657879       17.5723408860       19.7260047966
  C         6.3404026373       17.2987049625       21.0427606663
  N         6.6410480747        6.7479811658        8.9007003001
  C         6.3695767719        6.4831757522       10.2196852621
  N        19.5947571659       17.5660518180        6.7540357918
  C        20.9124810400       17.2919477807        6.4865372979
  N         8.7674572828       17.5844204390       17.5844225682
  C        10.0885039373       17.3233228636       17.3233247975
  N         2.9081769155        5.2066835987        6.7630524568
  C         1.5902451702        5.4765878588        6.4926908018
  N        13.7223588247        5.1472219842       17.6150770324
  C        12.4063093934        5.4206022139       17.3389468279
  N         2.9155595483       17.5595356740       16.0037955755
  C         1.5976739784       17.2907461962       16.2747248436
  N        13.7223551267       17.6150740144        5.1472194970
  C        12.4063061923       17.3389469275        5.4205994244
  N        19.5935269092        5.1996434963       16.0076827764
  C        20.9118410836        5.4713657870       16.2748484318
  N         8.7588745450        5.1710762706        5.1710781416
  C        10.0801841628        5.4307436940        5.4307426163
  N         6.6088669384       19.7260044420       17.5723380924
  C         6.3404011533       21.0427595254       17.2987047642
  N         6.6410462021        8.9007015035        6.7479852312
  C         6.3695757841       10.2196865654        6.4831787834
  N         6.5957722631        3.0373703963        5.1924079949
  C         6.3289734759        1.7209290705        5.4680012031
  N         6.6464410227       13.8609622269       16.0137520766
  C         6.3754318292       12.5426460532       16.2805506972
  N        15.9000017550        3.0361679063       17.5732909658
  C        16.1658697382        1.7205367826       17.2955643105
  N        15.8624230847       13.8610184428        6.7549181377
  C        16.1337969202       12.5418396421        6.4892935615
  N        15.9005256882       19.7270406231        5.1830239816
  C        16.1654484778       21.0428848609        5.4608581706
  N        15.8772617807        8.8984501138       16.0227162711
  C        16.1492055966       10.2183991845       16.2836388210
  N        17.4418457025        6.7535250898       19.7244993723
  C        17.1717503149        6.4864202673       21.0422720164
  N        17.4406888002       17.5693728567        8.9046193016
  C        17.1710513899       17.2937442591       10.2211559905
  N         5.0532732014        6.7608073652        3.0402095923
  C         5.3213320882        6.4921142605        1.7216719217
  N         5.0802017808       17.5593960666       13.8585228460
  C         5.3528125469       17.2899405099       12.5417651323
  N        17.4408138860       16.0030334855        3.0403022497
  C        17.1723354501       16.2702754294        1.7219715205
  N        17.4272026974        5.2084300331       13.8593573301
  C        17.1561023939        5.4794192405       12.5419036699
  N         5.0653535054       16.0051155592       19.7229448747
  C         5.3320601900       16.2751723910       21.0415963436
  N         5.0745157647        5.2030624318        8.9048942423
  C         5.3470151014        5.4736874937       10.2213370508
  N        17.4437098226       19.7241962076       16.0054692399
  C        17.1734378702       21.0422643984       16.2717586509
  N        17.4270363275        8.9039609652        5.1998912418
  C        17.1560919917       10.2204597125        5.4751013793
  N         5.0630207361        3.0410921404       16.0064302371
  C         5.3311248268        1.7228547255       16.2760864431
  N         5.0763140755       13.8575785867        5.2018812065
  C         5.3474293715       12.5408154148        5.4729609567
  N        17.4394913861        3.0396605116        6.7551248171
  C        17.1709980007        1.7214967810        6.4876102227
  N        17.4409689789       13.8594431876       17.5619491969
  C        17.1710471648       12.5421868847       17.2899473446
  N         5.0572693310       19.7210294805        6.7634379297
  C         5.3230358610       21.0400539819        6.4936239868
  N         5.0788267809        8.9056467639       17.5557349243
  C         5.3525919999       10.2223613030       17.2879894353
  N        19.5902703804        6.7573438927        5.2007847852
  C        20.9083060833        6.4897876352        5.4736362495
  N         8.7831121453        6.7293238439       16.0273156870
  C        10.0967441662        6.4492271518       16.3062738202
  N         2.9121159921        6.7612330887       17.5550379670
  C         1.5941174931        6.4900479046       17.2869120399
  N        13.7307980436        6.6940094359        6.6940070740
  C        12.4110650219        6.4304917745        6.4304874579
  N         2.9115865261       16.0007343698        5.2036113295
  C         1.5936990387       16.2713465063        5.4735170850
  N        13.7395364995       16.0585321842       16.0585293190
  C        12.4194350203       16.3217896738       16.3217885067
  N        19.5982113228       16.0107452296       17.5668701194
  C        20.9161945754       16.2781210507       17.2942241150
  N         8.7831107565       16.0273153916        6.7293223229
  C        10.0967392579       16.3062728877        6.4492258015
  N         6.6060571963       17.5742727074        3.0394863676
  C         6.3391917989       17.2997739556        1.7225832252
  N         6.6411670233        6.7489191581       13.8596525397
  C         6.3692352883        6.4831790367       12.5412368214
  N         6.6003163400        5.1957138182       19.7254193977
  C         6.3310017671        5.4696887109       21.0417426851
  N         6.6462890198       16.0117148749        8.9026232398
  C         6.3757881838       16.2791575957       10.2212763189
  N        15.9019102995       17.5751995035       19.7272395112
  C        16.1666204412       17.2968241653       21.0431511809
  N        15.8617885172        6.7452758072        8.8972884433
  C        16.1335509243        6.4845088382       10.2172278823
  N        15.8994400673        5.1836568835        3.0353097723
  C        16.1652059473        5.4616762297        1.7199233936
  N        15.8772497763       16.0153884407       13.8617380503
  C        16.1491288949       16.2797881999       12.5423480645
 Zn        14.5825919910       14.7663711523       14.7663686495
 Cl        13.1894902078       13.6289575245       13.6289643042
 Zn        14.6108119179        3.8630457443        3.8630482902
 Cl        13.4321899093        2.6057523718        2.6057589696
 Zn         3.7800727527       14.7130808870        3.9082836070
 Cl         2.5414873285       13.4759351181        2.6862397002
 Zn         3.7800720639        3.9082837456       14.7130808624
 Cl         2.5414858744        2.6862399827       13.4759338740
 Zn         7.9434221614        8.0294184946       14.7254714703
 Cl         9.1622623090        9.2675295126       13.4860926977
 Zn         7.8911336219       18.8772403553        3.8956767348
 Cl         9.1142787783       20.1168990724        2.6608263997
 Zn        18.7242042548        8.0500934289        3.9061624099
 Cl        19.9490943334        9.2954566965        2.6799254588
 Zn        18.7319724065       18.8567818754       14.7165269320
 Cl        19.9591211500       20.0838763594       13.4730422876
 Zn         7.9434215700       14.7254708114        8.0294150131
 Cl         9.1622604855       13.4860915991        9.2675272741
 Zn         7.8911355422        3.8956782240       18.8772401333
 Cl         9.1142741572        2.6608248698       20.1169038197
 Zn        18.7319693014       14.7165266660       18.8567725972
 Cl        19.9591216505       13.4730484940       20.0838730181
 Zn        18.7242037926        3.9061641668        8.0500943778
 Cl        19.9490942194        2.6799295166        9.2954602210
 Zn        14.5639179534        7.9893681500        7.9893685091
 Cl        13.1598572708        9.1188744438        9.1188709033
 Zn        14.6126332027       18.8888354033       18.8888332326
 Cl        13.4305715476       20.1450562259       20.1450576842
 Zn         3.7781121370        8.0565987205       18.8422018712
 Cl         2.5380205869        9.2940408249       20.0634011073
 Zn         3.7781149090       18.8422003747        8.0565996624
 Cl         2.5380225152       20.0633999599        9.2940391633
 Zn        14.5730458356       14.7749942142        8.0035337451
 Cl        13.1745646721       13.7075906683        9.1995079790
 Zn        14.6109645108        3.8681558172       18.8889211369
 Cl        13.4305455384        2.6096845884       20.1441969332
 Zn         3.7825147699       14.7131647896       18.8494530452
 Cl         2.5444872028       13.4766473222       20.0733810769
 Zn         3.7746493185        3.9124781540        8.0558215023
 Cl         2.5335312030        2.6949907537        9.2948766949
 Zn         7.9421939242        8.0257648590        8.0257641807
 Cl         9.1640393625        9.2636263358        9.2636251348
 Zn         7.8961715089       18.8731149804       18.8731148162
 Cl         9.1253209068       20.1073839112       20.1073808068
 Zn        18.7310231946        8.0469465495       18.8631926402
 Cl        19.9616752723        9.2814958720       20.0947185046
 Zn        18.7310241195       18.8631890673        8.0469451809
 Cl        19.9616767610       20.0947205095        9.2814919566
 Zn        14.5730508105        8.0035304248       14.7749973696
 Cl        13.1745665822        9.1995044393       13.7075944163
 Zn        14.6109630546       18.8889159874        3.8681552544
 Cl        13.4305480415       20.1441985177        2.6096843373
 Zn         3.7746493608        8.0558209204        3.9124793673
 Cl         2.5335294666        9.2948751022        2.6949918321
 Zn         3.7825138989       18.8494549967       14.7131632848
 Cl         2.5444883833       20.0733834835       13.4766446118
 Zn         7.9448808055       14.7266687619       14.7266662138
 Cl         9.1594955577       13.4862361447       13.4862359357
 Zn         7.8823489804        3.8890755876        3.8890767749
 Cl         9.0975261765        2.6477014740        2.6477040009
 Zn        18.7245511691       14.7135913593        3.9116636000
 Cl        19.9465689324       13.4590587461        2.6908979066
 Zn        18.7245499960        3.9116637602       14.7135943885
 Cl        19.9465649166        2.6908971751       13.4590614341
 Zn         5.8442697380        5.9729883681       16.7842588613
 Zn        16.6649438940       16.8067360568       16.8067350086
 Zn        16.6596397324        5.9549079711        5.9549084487
 Zn         5.8442706637       16.7842593072        5.9729872308
 Zn         5.8399406313        5.9700018091        5.9700020753
 Zn        16.6623091876       16.8097671549        5.9583183815
 Zn         5.8476999629       16.7851243965       16.7851242591
 Zn        16.6623071176        5.9583190656       16.8097673515
  N         3.6581254853        5.9828274589       16.7773155135
  N        14.4709494540        5.9152770381        5.9152770620
  N        18.8517610813       16.7900897174       16.7900915071
  N         8.0267673064       16.8039565034        5.9598736763
  N        18.8439442970        5.9776295293        5.9776317212
  N         8.0267716479        5.9598706943       16.8039601869
  N         3.6581315666       16.7773165684        5.9828251406
  N        14.4792501862       16.8374127570       16.8374122591
  N        16.6703179671        3.7836067741        5.9658849133
  N        16.6584676799       14.6075268615       16.7914181937
  N        16.6744912799       18.9797226937       16.7939603083
  N        16.6443818246        8.1537249988        5.9681151197
  N         5.8300005382       18.9763895280        5.9782598254
  N         5.8611498218        8.1577565478       16.7839242161
  N         5.8343766184        3.7870132463       16.7916178393
  N         5.8589567210       14.6048289401        5.9739797324
  N         5.8343812796       16.7916156851        3.7870151014
  N         5.8589567023        5.9739792219       14.6048265734
  N        16.6744963420       16.7939596169       18.9797197116
  N        16.6443865438        5.9681158672        8.1537271061
  N         5.8299986412        5.9782597014       18.9763923107
  N         5.8611497912       16.7839239053        8.1577535335
  N        16.6703189848        5.9658826942        3.7836073206
  N        16.6584633858       16.7914174397       14.6075283444
  N         5.8243940051        3.7854664421        5.9746373817
  N         5.8626520802       14.6059757288       16.7871669002
  N        16.6727605866       18.9798727434        5.9649804503
  N        16.6579894566        8.1547403931       16.8004868511
  N         5.8377995867       18.9775782942       16.7898004886
  N         5.8572485902        8.1563586073        5.9738372354
  N        16.6712171627        3.7844556170       16.7915286727
  N        16.6450718388       14.6072347766        5.9793590288
  N         3.6619563841       16.7810686463       16.7810700434
  N        14.4754170922       16.8387729141        5.9214105964
  N        18.8477681947       16.7886223476        5.9757577365
  N         8.0304124510       16.8017961151       16.8017972041
  N        18.8477614024        5.9757543835       16.7886210336
  N         8.0223339250        5.9537420078        5.9537426784
  N         3.6543095114        5.9849264654        5.9849254160
  N        14.4754216580        5.9214180685       16.8387704407
  N        16.6727587511        5.9649826280       18.9798712467
  N        16.6579990111       16.8004962892        8.1547435400
  N        16.6712134629       16.7915270594        3.7844508341
  N        16.6450644334        5.9793612022       14.6072379756
  N         5.8243973394        5.9746390663        3.7854676645
  N         5.8626541501       16.7871650490       14.6059740291
  N         5.8377949546       16.7898007599       18.9775789787
  N         5.8572509587        5.9738364917        8.1563575773
  C        11.2659177847       15.7645288233       15.7645258991
  H        11.2808543996       14.9890863270       14.9890796848
  C        11.2334289845        4.8720521532        4.8720515799
  H        11.2190988572        4.0967298654        4.0967314267
  C         0.4324964566       15.7223270589        4.9228973742
  H         0.4330503344       14.9459158779        4.1482593764
  C         0.4324949430        4.9229054976       15.7223202300
  H         0.4330477663        4.1482719485       14.9459052346
  C        11.2624409007        6.9898178553       15.7612894306
  H        11.2775268011        7.7648669531       14.9854937219
  C        11.2385039842       17.8841262527        4.8796796363
  H        11.2254209498       18.6619775362        4.1068328903
  C         0.4293229660        7.0417059460        4.9253856357
  H         0.4301306969        7.8175273337        4.1501209146
  C         0.4369505326       17.8422973817       15.7257313813
  H         0.4376757993       18.6171688370       14.9495058529
  C        11.2624406912       15.7612875237        6.9898173633
  H        11.2775263938       14.9854905272        7.7648672482
  C        11.2385009670        4.8796800825       17.8841279131
  H        11.2254231298        4.1068326781       18.6619802967
  C         0.4369498951       15.7257299760       17.8422926391
  H         0.4376752013       14.9495032178       18.6171612858
  C         0.4293225721        4.9253891320        7.0417087385
  H         0.4301311300        4.1501269308        7.8175327540
  C        11.2585218185        6.9885420000        6.9885352608
  H        11.2741590376        7.7639594088        7.7639499271
  C        11.2426423360       17.8810061073       17.8810089876
  H        11.2304000354       18.6563764271       18.6563796936
  C         0.4336758462        7.0386372558       17.8394562352
  H         0.4347223096        7.8142567650       18.6149652011
  C         0.4336760594       17.8394523724        7.0386398320
  H         0.4347251677       18.6149566895        7.8142629432
  C        15.5955358377       11.3794997765       15.7354946597
  H        14.8086125756       11.3764168649       14.9721082064
  C        15.6186734432        0.5614790392        4.9057244583
  H        14.8516682354        0.5619085264        4.1213447535
  C         4.7929258683       11.3810630819        4.9267262942
  H         4.0124100033       11.3809967234        4.1561608997
  C         4.7855923813        0.5622310047       15.7206879555
  H         4.0156527840        0.5624995418       14.9396185456
  C        15.5802860886       11.3784830927        7.0327247970
  H        14.7950261167       11.3750756184        7.7974162737
  C        15.6191697203        0.5619245425       17.8511391435
  H        14.8513898287        0.5623530466       18.6347542976
  C         4.7983179221       11.3817005682       17.8357610954
  H         4.0172076694       11.3811415062       18.6058348319
  C         4.7764325132        0.5608130044        7.0480985923
  H         4.0069065659        0.5610239455        7.8295350678
  C         6.9293062641       11.3822908456       15.7326392672
  H         7.7083658356       11.3831757586       14.9605937273
  C         6.8766858008        0.5614394776        4.9145385798
  H         7.6466868722        0.5619263349        4.1334113220
  C        17.7093541896       11.3821692811        4.9307642621
  H        18.4876972716       11.3838807604        4.1577513699
  C        17.7178477696        0.5620536688       15.7141484612
  H        18.4869000029        0.5617423951       14.9322617643
  C         6.9224274834       11.3804935755        7.0312484600
  H         7.7012736135       11.3809039489        7.8036065947
  C         6.8867432775        0.5627506331       17.8532177541
  H         7.6573540466        0.5630412123       18.6337117751
  C        17.7242561161       11.3825355386       17.8387378789
  H        18.5017613815       11.3841573739       18.6124620430
  C        17.7162192463        0.5618175417        7.0441237053
  H        18.4850891509        0.5614760700        7.8262258069
  C        15.5955404168       15.7354931134       11.3795005980
  H        14.8086161029       14.9721061782       11.3764157070
  C        15.6186770775        4.9057190452        0.5614812099
  H        14.8516775298        4.1213343705        0.5619094234
  C         4.7855967193       15.7206846077        0.5622294169
  H         4.0156574751       14.9396148844        0.5625001956
  C         4.7929242441        4.9267276472       11.3810640895
  H         4.0124066088        4.1561643661       11.3809964409
  C         6.9293047243       15.7326371692       11.3822914452
  H         7.7083642994       14.9605919802       11.3831745878
  C         6.8766850574        4.9145375659        0.5614384104
  H         7.6466861468        4.1334100111        0.5619251816
  C        17.7178547874       15.7141528290        0.5620517668
  H        18.4869062337       14.9322658448        0.5617404991
  C        17.7093528344        4.9307638391       11.3821679099
  H        18.4876954823        4.1577493496       11.3838819918
  C        15.5802906975        7.0327299106       11.3784837135
  H        14.7950352772        7.7974240921       11.3750760974
  C        15.6191788062       17.8511457880        0.5619251640
  H        14.8513998430       18.6347618568        0.5623514149
  C         4.7764299668        7.0480964016        0.5608130862
  H         4.0069027189        7.8295313869        0.5610258655
  C         4.7983162850       17.8357588255       11.3816999469
  H         4.0172058234       18.6058328670       11.3811403684
  C         6.9224299622        7.0312458140       11.3804937718
  H         7.7012775022        7.8036027782       11.3809033590
  C         6.8867450879       17.8532165329        0.5627498160
  H         7.6573546167       18.6337116201        0.5630404139
  C        17.7162126680        7.0441282001        0.5618212326
  H        18.4850811109        7.8262330405        0.5614793021
  C        17.7242631751       17.8387341964       11.3825324759
  H        18.5017695861       18.6124560760       11.3841584237
 Kr        12.1615251613       11.3697880984       11.3697909094
