     409
 i =      96, E =    -5186.5866572640
  N         2.8529639131        5.2044659037       16.0173330609
  C         1.5350463452        5.4767884835       16.2866734462
  N        13.6756666347        5.2126188639        5.2126199066
  C        12.3576603868        5.4817459409        5.4817474604
  N        19.5335379472       17.5776226285       16.0211173182
  C        20.8515881232       17.3037983088       16.2876790488
  N         8.7149289296       17.5756825165        5.2071556519
  C        10.0325542996       17.3043916884        5.4767188085
  N        19.5379217911        5.2071237657        6.7635517415
  C        20.8559154091        5.4773711220        6.4934711103
  N         8.7149296486        5.2071581824       17.5756824220
  C        10.0325496524        5.4767190663       17.3043953336
  N         2.8543129637       17.5741302995        6.7606269437
  C         1.5360996600       17.3029663106        6.4927519501
  N        13.6688160079       17.5757464184       17.5757458152
  C        12.3511205771       17.3054502745       17.3054495235
  N        15.8243456361        3.0534074328        5.2097106469
  C        16.0914955949        1.7351547620        5.4803099424
  N        15.8226610910       13.8693600730       16.0188439382
  C        16.0929428215       12.5520431793       16.2882801576
  N        15.8191497677       19.7349725614       17.5757659775
  C        16.0872154247       21.0527989332       17.3035924196
  N        15.8315195879        8.9164497677        6.7688227014
  C        16.1013945398       10.2335575600        6.4998100076
  N         6.5638712211       19.7329281090        5.2063806776
  C         6.2966247703       21.0509214340        5.4778149953
  N         6.5623128116        8.9131489990       16.0179917684
  C         6.2925019779       10.2303459184       16.2880804842
  N         6.5658372126        3.0492702795       17.5758116368
  C         6.2976742327        1.7315129298       17.3039133138
  N         6.5627736939       13.8671264962        6.7624310024
  C         6.2936428877       12.5498525251        6.4924211253
  N         5.0125211987       16.0181157550        3.0497490580
  C         5.2830711269       16.2866446187        1.7318618425
  N         5.0100279893        5.2046238159       13.8671530197
  C         5.2793362650        5.4749208394       12.5497195541
  N        17.3738503557       16.0187604543       19.7345216917
  C        17.1026337903       16.2869185023       21.0523710616
  N        17.3841953490        5.2105838680        8.9164520708
  C        17.1154890723        5.4820411308       10.2337384281
  N         5.0084457717        6.7620085430       19.7339211441
  C         5.2804466697        6.4935684724       21.0515563684
  N         5.0087788419       17.5754722136        8.9125912973
  C         5.2776093665       17.3050561444       10.2300932369
  N        17.3788134144        6.7660175492        3.0516787966
  C        17.1068931717        6.4967864500        1.7341259325
  N        17.3767420856       17.5756746449       13.8698523373
  C        17.1079168418       17.3051855987       12.5523664905
  N         5.0129794960        3.0499345871        6.7627155295
  C         5.2830561864        1.7322239901        6.4937867519
  N         5.0084957750       13.8671944708       17.5759313580
  C         5.2774445393       12.5497631722       17.3053400732
  N        17.3755428147       19.7352319514        6.7645389068
  C        17.1050111154       21.0531352339        6.4960171727
  N        17.3772574652        8.9153114442       17.5775708673
  C        17.1081198159       10.2326131529       17.3062139702
  N         5.0089289441       19.7333563188       16.0185667908
  C         5.2809932156       21.0510377729       16.2867547725
  N         5.0106322666        8.9128015449        5.2054235326
  C         5.2796769709       10.2302640917        5.4753942708
  N        17.3769792374        3.0513110614       16.0191366244
  C        17.1043847963        1.7335863252       16.2870988600
  N        17.3812208518       13.8706578496        5.2105721519
  C        17.1139688514       12.5531506504        5.4822015938
  N         2.8520103664       16.0171350957       17.5737257264
  C         1.5339017334       16.2855874229       17.3017274107
  N        13.6708702034       16.0167785273        6.7626550145
  C        12.3532582874       16.2867010257        6.4921709723
  N        19.5345405055       16.0219182998        5.2071863778
  C        20.8528434313       16.2892820564        5.4784409503
  N         8.7127053204       16.0188587123       16.0188581389
  C        10.0302695952       16.2890579396       16.2890571523
  N        19.5363204188        6.7635215686       17.5784572765
  C        20.8540593047        6.4944609946       17.3054963965
  N         8.7172817973        6.7640222543        6.7640229314
  C        10.0352608040        6.4951810062        6.4951820911
  N         2.8556905702        6.7605327721        5.2041577446
  C         1.5377634859        6.4919197574        5.4758104564
  N        13.6708709015        6.7626582548       16.0167762757
  C        12.3532537166        6.4921711117       16.2867041794
  N        15.8204729185        5.2081396761       19.7360587610
  C        16.0894440171        5.4795487178       21.0538574146
  N        15.8224765406       16.0208752478        8.9148887780
  C        16.0929710420       16.2894205498       10.2322886216
  N        15.8229313363       17.5763474208        3.0522387483
  C        16.0892400994       17.3038240929        1.7341347089
  N        15.8288298978        6.7686348181       13.8697422075
  C        16.1000193928        6.5000537188       12.5525920063
  N         6.5685744249        5.2074278316        3.0496689976
  C         6.2993036120        5.4781423298        1.7318877439
  N         6.5618194225       16.0185183555       13.8671244509
  C         6.2922948177       16.2883274086       12.5498372333
  N         6.5623984834       17.5763018727       19.7327849407
  C         6.2956862654       17.3040415967       21.0505842258
  N         6.5636175667        6.7633255504        8.9136910066
  C         6.2940329695        6.4928576241       10.2306846201
  N        19.5363213948       17.5784614495        6.7635242763
  C        20.8540655289       17.3054950406        6.4944577343
  N         8.7124041268       17.5752408040       17.5752398446
  C        10.0300617990       17.3050904793       17.3050892936
  N         2.8556928650        5.2041564248        6.7605335911
  C         1.5377602831        5.4758107423        6.4919192103
  N        13.6714636010        5.2080761175       17.5746133697
  C        12.3536301330        5.4770037540       17.3036948668
  N         2.8520086259       17.5737255713       16.0171352532
  C         1.5339043122       17.3017282769       16.2855867617
  N        13.6714626651       17.5746094308        5.2080789329
  C        12.3536374992       17.3036954171        5.4769999165
  N        19.5345396328        5.2071901592       16.0219215538
  C        20.8528376159        5.4784396367       16.2892795193
  N         8.7193389502        5.2077998541        5.2078009156
  C        10.0367091305        5.4791111478        5.4791124466
  N         6.5624003132       19.7327842869       17.5763049617
  C         6.2956844282       21.0505901409       17.3040408349
  N         6.5636193105        8.9136887280        6.7633276910
  C         6.2940290615       10.2306906249        6.4928572403
  N         6.5685714997        3.0496672919        5.2074312655
  C         6.2993056768        1.7318947596        5.4781412482
  N         6.5618179784       13.8671242380       16.0185199236
  C         6.2922974151       12.5498417717       16.2883270528
  N        15.8229321953        3.0522381061       17.5763463112
  C        16.0892401384        1.7341369824       17.3038252815
  N        15.8288285449       13.8697434002        6.7686349603
  C        16.1000191761       12.5525900205        6.5000528852
  N        15.8204720275       19.7360578076        5.2081391764
  C        16.0894446787       21.0538595823        5.4795497401
  N        15.8224762754        8.9148900710       16.0208765906
  C        16.0929698034       10.2322863340       16.2894207698
  N        17.3755423371        6.7645381483       19.7352304279
  C        17.1050109108        6.4960166201       21.0531361045
  N        17.3772583996       17.5775698327        8.9153131874
  C        17.1081210914       17.3062137520       10.2326109617
  N         5.0129779573        6.7627167649        3.0499350309
  C         5.2830567182        6.4937853377        1.7322216721
  N         5.0084948821       17.5759325690       13.8671924219
  C         5.2774444672       17.3053383143       12.5497613370
  N        17.3769796846       16.0191362924        3.0513093886
  C        17.1043842662       16.2870980866        1.7335868310
  N        17.3812211912        5.2105724425       13.8706593873
  C        17.1139689463        5.4822022612       12.5531488167
  N         5.0089310970       16.0185682731       19.7333560376
  C         5.2809928444       16.2867534446       21.0510355162
  N         5.0106339847        5.2054237943        8.9128009480
  C         5.2796777386        5.4753910820       10.2302619180
  N        17.3738511438       19.7345224696       16.0187607615
  C        17.1026348954       21.0523709499       16.2869197675
  N        17.3841956238        8.9164518192        5.2105844346
  C        17.1154888406       10.2337385025        5.4820410551
  N         5.0125226661        3.0497451102       16.0181176556
  C         5.2830693297        1.7318692849       16.2866438043
  N         5.0100305616       13.8671558658        5.2046268062
  C         5.2793344321       12.5497205981        5.4749225296
  N        17.3788133201        3.0516788966        6.7660173671
  C        17.1068932149        1.7341260674        6.4967870470
  N        17.3767423100       13.8698526793       17.5756738891
  C        17.1079169128       12.5523665019       17.3051852421
  N         5.0084442195       19.7339173974        6.7620108073
  C         5.2804489912       21.0515632639        6.4935678776
  N         5.0087758430        8.9125941634       17.5754745555
  C         5.2776103700       10.2300945097       17.3050566865
  N        19.5379211095        6.7635510940        5.2071245754
  C        20.8559152334        6.4934704931        5.4773718546
  N         8.7145860853        6.7623032759       16.0182955508
  C        10.0322840105        6.4920408554       16.2876113208
  N         2.8543117548        6.7606321325       17.5741345330
  C         1.5360945154        6.4927512395       17.3029637553
  N        13.6736250926        6.7686123958        6.7686127633
  C        12.3562048249        6.4977855583        6.4977867029
  N         2.8529656954       16.0173364902        5.2044692650
  C         1.5350500992       16.2866720718        5.4767859233
  N        13.6690712783       16.0195183388       16.0195182465
  C        12.3513011291       16.2893626386       16.2893622663
  N        19.5335377999       16.0211176349       17.5776221251
  C        20.8515890396       16.2876795070       17.3037976426
  N         8.7145831236       16.0182915087        6.7623049668
  C        10.0322923638       16.2876111629        6.4920371777
  N         6.5658373511       17.5758117320        3.0492704326
  C         6.2976738467       17.3039121382        1.7315114115
  N         6.5627763257        6.7624332121       13.8671258584
  C         6.2936434586        6.4924181699       12.5498493110
  N         6.5638699402        5.2063805234       19.7329291769
  C         6.2966249819        5.4778127469       21.0509190307
  N         6.5623115413       16.0179937490        8.9131475830
  C         6.2925022560       16.2880784299       10.2303438445
  N        15.8191494940       17.5757646059       19.7349731978
  C        16.0872138351       17.3035913966       21.0527977276
  N        15.8315195066        6.7688225213        8.9164492383
  C        16.1013949364        6.4998102525       10.2335571482
  N        15.8243451140        5.2097099685        3.0534082632
  C        16.0914959004        5.4803095720        1.7351542883
  N        15.8226607917       16.0188445118       13.8693594984
  C        16.0929429525       16.2882806438       12.5520422677
 Zn        14.5302465452       14.7251242199       14.7251236875
 Cl        13.3003870446       13.4914925691       13.4914919564
 Zn        14.5368658267        3.9184827573        3.9184836117
 Cl        13.2937372822        2.6909962660        2.6909970724
 Zn         3.7211858034       14.7257460844        3.9092976799
 Cl         2.4915362519       13.4907110606        2.6766489740
 Zn         3.7211848987        3.9092991468       14.7257462464
 Cl         2.4915348127        2.6766501535       13.4907110507
 Zn         7.8530574264        8.0557406924       14.7238848969
 Cl         9.0870573012        9.2874685760       13.4924120596
 Zn         7.8524011040       18.8708991930        3.9125761243
 Cl         9.0918037210       20.1027259824        2.6865820416
 Zn        18.6712608078        8.0559483487        3.9132929946
 Cl        19.9018462996        9.2912951576        2.6819051034
 Zn        18.6669834467       18.8713267361       14.7280691433
 Cl        19.8984352703       20.0994872515       13.4905359529
 Zn         7.8530582495       14.7238855457        8.0557392843
 Cl         9.0870582935       13.4924129825        9.2874681587
 Zn         7.8524012003        3.9125759777       18.8709001990
 Cl         9.0918032104        2.6865816965       20.1027267823
 Zn        18.6669839047       14.7280688248       18.8713259145
 Cl        19.8984357255       13.4905360276       20.0994868428
 Zn        18.6712612837        3.9132934885        8.0559486198
 Cl        19.9018456003        2.6819047184        9.2912961976
 Zn        14.5393040563        8.0604099128        8.0604095494
 Cl        13.3192141153        9.2991760311        9.2991760423
 Zn        14.5312104273       18.8707507813       18.8707513768
 Cl        13.2916286727       20.0995782637       20.0995778694
 Zn         3.7191745851        8.0530815048       18.8701071374
 Cl         2.4818869297        9.2895828144       20.0936698552
 Zn         3.7191759206       18.8701082619        8.0530802933
 Cl         2.4818876977       20.0936703562        9.2895816238
 Zn        14.5332516259       14.7243310696        8.0574644871
 Cl        13.3077837819       13.4872803961        9.2922346774
 Zn        14.5341161349        3.9142752604       18.8706084560
 Cl        13.2928375606        2.6806574352       20.0931608476
 Zn         3.7190997999       14.7262239766       18.8705810004
 Cl         2.4855891764       13.4904820098       20.0986891765
 Zn         3.7216992274        3.9102160626        8.0535916717
 Cl         2.4883366268        2.6819029095        9.2892296271
 Zn         7.8543479371        8.0567439506        8.0567444057
 Cl         9.0871593038        9.2890367493        9.2890360796
 Zn         7.8507243724       18.8702852847       18.8702842854
 Cl         9.0911077868       20.0986671265       20.0986661469
 Zn        18.6684003243        8.0550880762       18.8722623010
 Cl        19.8961051785        9.2918631856       20.1049475557
 Zn        18.6684015962       18.8722620459        8.0550879164
 Cl        19.8961071668       20.1049465608        9.2918622490
 Zn        14.5332511261        8.0574631065       14.7243324974
 Cl        13.3077825394        9.2922336353       13.4872813002
 Zn        14.5341171317       18.8706092664        3.9142747875
 Cl        13.2928394793       20.0931610352        2.6806563075
 Zn         3.7217001209        8.0535911925        3.9102165025
 Cl         2.4883369820        9.2892295982        2.6819029965
 Zn         3.7191008169       18.8705810740       14.7262238887
 Cl         2.4855904971       20.0986892543       13.4904812169
 Zn         7.8518772180       14.7242396670       14.7242395585
 Cl         9.0857786603       13.4926547754       13.4926543402
 Zn         7.8557768991        3.9128465003        3.9128461524
 Cl         9.0939344701        2.6832885718        2.6832880243
 Zn        18.6689560921       14.7282097030        3.9136285971
 Cl        19.9030931859       13.4914046589        2.6873246145
 Zn        18.6689550725        3.9136286343       14.7282093569
 Cl        19.9030920979        2.6873239635       13.4914047629
 Zn         5.7863793895        5.9855573568       16.7987879753
 Zn        16.6023730070       16.8023214684       16.8023214617
 Zn        16.6068587150        5.9912813772        5.9912820437
 Zn         5.7863710615       16.7987819721        5.9855612198
 Zn         5.7881781356        5.9862089048        5.9862160146
 Zn        16.6040128096       16.8029807849        5.9893360346
 Zn         5.7851549985       16.7990602504       16.7990639852
 Zn        16.6040218407        5.9893353785       16.8029809648
  N         3.5998543922        5.9813704781       16.7963905118
  N        14.4210784227        5.9909223218        5.9909226329
  N        18.7872563895       16.8014482731       16.8014464714
  N         7.9685436849       16.7975624031        5.9850355787
  N        18.7916951424        5.9853524287        5.9853515562
  N         7.9685389647        5.9850394399       16.7975597432
  N         3.5998528739       16.7963914003        5.9813711078
  N        14.4153675564       16.7977553902       16.7977550615
  N        16.6028854905        3.7993694467        5.9874106713
  N        16.5992624607       14.6163055458       16.7975730284
  N        16.5975697935       18.9881860984       16.7984944440
  N        16.6073680141        8.1700427994        5.9892261553
  N         5.7849028098       18.9867484058        5.9833373540
  N         5.7858066117        8.1664449779       16.7967906650
  N         5.7883391471        3.7962119514       16.7979432896
  N         5.7864131384       14.6137692448        5.9835191808
  N         5.7883425659       16.7979472551        3.7962077396
  N         5.7864127260        5.9835191108       14.6137709584
  N        16.5975689525       16.7984947410       18.9881858826
  N        16.6073670732        5.9892261467        8.1700426186
  N         5.7848987422        5.9833407105       18.9867439724
  N         5.7858069108       16.7967915627        8.1664468965
  N        16.6028851614        5.9874106758        3.7993696615
  N        16.5992628183       16.7975746856       14.6163049454
  N         5.7903509323        3.7966003545        5.9845802405
  N         5.7853419362       14.6138585606       16.7974285023
  N        16.5985836177       18.9890457628        5.9855473885
  N        16.5994541471        8.1687333824       16.7998825881
  N         5.7842075872       18.9863486148       16.7986560962
  N         5.7872842246        8.1667387574        5.9846087880
  N        16.6017435930        3.7985592371       16.7991305142
  N        16.6038775877       14.6169798249        5.9888298544
  N         3.5982744031       16.7965591624       16.7965553433
  N        14.4175887689       16.7961105744        5.9858425222
  N        18.7891331368       16.8016267296        5.9846559276
  N         7.9662832480       16.7970249721       16.7970236130
  N        18.7891328111        5.9846566019       16.8016266468
  N         7.9719984206        5.9853889346        5.9853889392
  N         3.6020285704        5.9815722673        5.9815680541
  N        14.4175863959        5.9858443261       16.7961085899
  N        16.5985808905        5.9855457547       18.9890461723
  N        16.5994586745       16.7998840921        8.1687325726
  N        16.6017464552       16.7991299206        3.7985594981
  N        16.6038749617        5.9888322639       14.6169788008
  N         5.7903484517        5.9845839390        3.7965984505
  N         5.7853415623       16.7974311611       14.6138575938
  N         5.7842096623       16.7986585386       18.9863469606
  N         5.7872855748        5.9846114917        8.1667366898
  C        11.1909098716       15.7388166196       15.7388162970
  H        11.1908165167       14.9632254492       14.9632251702
  C        11.1983754377        4.9301365945        4.9301383165
  H        11.2006235974        4.1546057766        4.1546072325
  C         0.3730070595       15.7371703276        4.9282721204
  H         0.3710825830       14.9610929560        4.1532547386
  C         0.3730103185        4.9282728051       15.7371697680
  H         0.3710826866        4.1532557720       14.9610923295
  C        11.1925228577        7.0419476931       15.7362030185
  H        11.1917587555        7.8171247768       14.9602156519
  C        11.1932918353       17.8545156865        4.9268045980
  H        11.1935907105       18.6305429259        4.1517811583
  C         0.3768154909        7.0430524885        4.9267130539
  H         0.3768944276        7.8187101536        4.1512901387
  C         0.3727489480       17.8516800901       15.7355422047
  H         0.3727307519       18.6264286108       14.9592124056
  C        11.1925175330       15.7362013187        7.0419450219
  H        11.1917577851       14.9602136474        7.8171220505
  C        11.1932967876        4.9268073982       17.8545173617
  H        11.1935906720        4.1517841142       18.6305451020
  C         0.3727488482       15.7355427731       17.8516790774
  H         0.3727311403       14.9592125946       18.6264277826
  C         0.3768153864        4.9267132674        7.0430519438
  H         0.3768953530        4.1512901710        7.8187096907
  C        11.1945755795        7.0469093858        7.0469105894
  H        11.1922469566        7.8224806836        7.8224813379
  C        11.1904146697       17.8555194718       17.8555183836
  H        11.1899366371       18.6310447708       18.6310434190
  C         0.3760606754        7.0442510344       17.8536461911
  H         0.3780566341        7.8201881136       18.6287611539
  C         0.3760578666       17.8536470410        7.0442492927
  H         0.3780568548       18.6287625424        7.8201857812
  C        15.5430872134       11.3918900849       15.7371247277
  H        14.7684947174       11.3913387812       14.9604478520
  C        15.5399402676        0.5751977065        4.9297111442
  H        14.7645848100        0.5765623621        4.1539554376
  C         4.7295414691       11.3897999007        4.9236501114
  H         3.9549389162       11.3893720784        4.1471496182
  C         4.7329621445        0.5719498583       15.7349410398
  H         3.9585507995        0.5729987252       14.9582162144
  C        15.5512915560       11.3926788567        7.0523598954
  H        14.7771212475       11.3917516325        7.8294256331
  C        15.5375127709        0.5739483094       17.8536090540
  H        14.7620541498        0.5749413268       18.6292735990
  C         4.7271029931       11.3897899709       17.8561432587
  H         3.9517397368       11.3895296605       18.6318821284
  C         4.7315148844        0.5724183033        7.0443387563
  H         3.9557362574        0.5737147802        7.8196822960
  C         6.8427400559       11.3901659014       15.7369643142
  H         7.6180443790       11.3902877449       14.9610612714
  C         6.8492580307        0.5708669614        4.9284518050
  H         7.6258557901        0.5699192473        4.1539338474
  C        17.6647198055       11.3938418864        4.9306692588
  H        18.4386502516       11.3945101017        4.1535613763
  C        17.6529493144        0.5726863718       15.7358437979
  H        18.4283573538        0.5720562553       14.9601467262
  C         6.8439094337       11.3904659143        7.0442965795
  H         7.6184789731       11.3906874896        7.8209446724
  C         6.8472242386        0.5706918257       17.8542509269
  H         7.6225290775        0.5699046206       18.6300485198
  C        17.6584457093       11.3927586407       17.8564511539
  H        18.4334739685       11.3931897676       18.6324709208
  C        17.6556311348        0.5730584296        7.0473724204
  H        18.4307906578        0.5720481754        7.8233194531
  C        15.5430879585       15.7371251929       11.3918902332
  H        14.7684951847       14.9604483136       11.3913380756
  C        15.5399401212        4.9297100111        0.5751983710
  H        14.7645847647        4.1539542705        0.5765633314
  C         4.7329635076       15.7349407975        0.5719534407
  H         3.9585520779       14.9582153866        0.5729997183
  C         4.7295431088        4.9236482630       11.3898012766
  H         3.9549391120        4.1471492663       11.3893715294
  C         6.8427388357       15.7369632820       11.3901662567
  H         7.6180441565       14.9610609747       11.3902877409
  C         6.8492560469        4.9284516970        0.5708711191
  H         7.6258538026        4.1539335182        0.5699195368
  C        17.6529484662       15.7358420815        0.5726868988
  H        18.4283564718       14.9601449975        0.5720557243
  C        17.6647198124        4.9306701382       11.3938417911
  H        18.4386503708        4.1535621687       11.3945103984
  C        15.5512917826        7.0523611228       11.3926788783
  H        14.7771217933        7.8294269213       11.3917508431
  C        15.5375117930       17.8536072162        0.5739486288
  H        14.7620529349       18.6292715504        0.5749419935
  C         4.7315131600        7.0443388044        0.5724230355
  H         3.9557347955        7.8196822031        0.5737162420
  C         4.7271024894       17.8561422124       11.3897903546
  H         3.9517402899       18.6318820003       11.3895284122
  C         6.8439111176        7.0442952575       11.3904668333
  H         7.6184789984        7.8209448924       11.3906881768
  C         6.8472258481       17.8542508989        0.5706953303
  H         7.6225309314       18.6300479025        0.5699045487
  C        17.6556310722        7.0473714893        0.5730590567
  H        18.4307907794        7.8233186336        0.5720477080
  C        17.6584463669       17.8564515519       11.3927585903
  H        18.4334743534       18.6324711120       11.3931900515
 Kr        17.5086920749       10.4915875826       10.4915875918
