     409
 i =      96, E =    -5186.5716788293
  N         2.9066060289        5.2035865871       16.0004144304
  C         1.5887213006        5.4735735424       16.2711211752
  N        13.7109057875        5.1311773985        5.1311771626
  C        12.3948666711        5.4068856075        5.4068836428
  N        19.5931135289       17.5652587372       16.0093377756
  C        20.9111726283       17.2934904344       16.2774111294
  N         8.7565561651       17.5924846316        5.1750688351
  C        10.0779939336       17.3305095313        5.4314105544
  N        19.5851438182        5.2017802530        6.7582122791
  C        20.9031837785        5.4741884827        6.4903334372
  N         8.7565553514        5.1750689019       17.5924861371
  C        10.0779933750        5.4314116520       17.3305117024
  N         2.9072557135       17.5546769415        6.7612744672
  C         1.5892231122       17.2866567091        6.4901486177
  N        13.7190115715       17.6193399983       17.6193409917
  C        12.4031998431       17.3440089880       17.3440088928
  N        15.8971393399        3.0347859306        5.1829970560
  C        16.1621854882        1.7195924136        5.4621610269
  N        15.8660260138       13.8613813476       16.0112487070
  C        16.1390122334       12.5423232072       16.2759249101
  N        15.8991650315       19.7273818669       17.5753629963
  C        16.1635918489       21.0430131592       17.2959781074
  N        15.8545816493        8.8967858234        6.7476670778
  C        16.1261749456       10.2166820289        6.4873106554
  N         6.5939013361       19.7258024015        5.1949064397
  C         6.3247183527       21.0418082558        5.4696920533
  N         6.6430149362        8.9017340553       16.0120530386
  C         6.3722624740       10.2206359339       16.2789158409
  N         6.5997084141        3.0389094090       17.5753510478
  C         6.3331454242        1.7222247246       17.3003255210
  N         6.6373446453       13.8595728545        6.7475260151
  C         6.3649891650       12.5409944392        6.4825419789
  N         5.0576487892       16.0066084209        3.0407687147
  C         5.3256415100       16.2761065558        1.7225386710
  N         5.0715604110        5.2015504579       13.8572517240
  C         5.3426365299        5.4728773191       12.5405371370
  N        17.4391976137       16.0036740720       19.7235307124
  C        17.1693998640       16.2698651291       21.0418251541
  N        17.4203143644        5.2025898066        8.9040046244
  C        17.1491185756        5.4783009035       10.2204775065
  N         5.0518370933        6.7635032880       19.7206033727
  C         5.3172886717        6.4941394954       21.0397072818
  N         5.0745366572       17.5551492557        8.9053548721
  C         5.3485277551       17.2872411770       10.2219629714
  N        17.4351701715        6.7565349456        3.0395838622
  C        17.1668144332        6.4892201689        1.7212599190
  N        17.4313937080       17.5568220264       13.8599763315
  C        17.1618340437       17.2852116989       12.5425339377
  N         5.0464892292        3.0395851787        6.7614413634
  C         5.3149174519        1.7210960258        6.4929847658
  N         5.0760743033       13.8582140439       17.5588292942
  C         5.3487376317       12.5414716463       17.2892669970
  N        17.4371239393       19.7239975721        6.7549019027
  C        17.1673639933       21.0418914972        6.4879474723
  N        17.4324974416        8.9048492970       17.5657720207
  C        17.1625770025       10.2213483639       17.2897996606
  N         5.0604559711       19.7227270611       16.0053045666
  C         5.3267542825       21.0414470818       16.2752030584
  N         5.0693333225        8.9046683094        5.2027746134
  C         5.3421193262       10.2209883875        5.4736437802
  N        17.4368563409        3.0402524024       16.0012486074
  C        17.1685796618        1.7217151262       16.2683142990
  N        17.4191192153       13.8599517197        5.2127044547
  C        17.1484002438       12.5422454370        5.4833218642
  N         2.9107339105       16.0035753332       17.5593211452
  C         1.5927798977       16.2745496519       17.2905940767
  N        13.7304981185       16.0637083688        6.6882971132
  C        12.4099370673       16.3262136678        6.4260020420
  N        19.5884846500       16.0067924669        5.2010001569
  C        20.9068387506       16.2744089335        5.4720869622
  N         8.7812173731       16.0319287688       16.0319279914
  C        10.0943495538       16.3128318674       16.3128299450
  N        19.5897027101        6.7554409691       17.5648656572
  C        20.9075104799        6.4873225080       17.2914055488
  N         8.7740545606        6.7212849279        6.7212825030
  C        10.0865974526        6.4394494769        6.4394457516
  N         2.9029099104        6.7632074112        5.2069108677
  C         1.5850384572        6.4928407779        5.4767628270
  N        13.7304978208        6.6882972840       16.0637099007
  C        12.4099372042        6.4260026199       16.3262156615
  N        15.8978201844        5.1820243385       19.7271378662
  C        16.1622517844        5.4611656955       21.0427383201
  N        15.8683348646       16.0195282786        8.8982000743
  C        16.1401394421       16.2803233414       10.2180676218
  N        15.8977607964       17.5732074190        3.0355075958
  C        16.1631266089       17.2945607757        1.7201093865
  N        15.8534576764        6.7588841399       13.8604115309
  C        16.1256458797        6.4927242601       12.5416663857
  N         6.5875622630        5.1920032016        3.0367474627
  C         6.3218768158        5.4682557957        1.7204684369
  N         6.6431132463       16.0140507220       13.8609481201
  C         6.3718273607       16.2803382909       12.5424301694
  N         6.6029011438       17.5734726994       19.7262846263
  C         6.3345208221       17.2992888845       21.0428181939
  N         6.6370566809        6.7465559248        8.8998594822
  C         6.3653107155        6.4825300668       10.2191046302
  N        19.5897041735       17.5648613671        6.7554431942
  C        20.9075125569       17.2914023223        6.4873230742
  N         8.7601320581       17.5878492840       17.5878521879
  C        10.0814565492       17.3281711701       17.3281720101
  N         2.9029098981        5.2069136719        6.7632083284
  C         1.5850383716        5.4767653867        6.4928409078
  N        13.7158052608        5.1396864806       17.6223324257
  C        12.3998853464        5.4136167338       17.3453891113
  N         2.9107350340       17.5593248146       16.0035765806
  C         1.5927802925       17.2905971892       16.2745501568
  N        13.7158058959       17.6223290292        5.1396833461
  C        12.3998853486       17.3453857387        5.4136147839
  N        19.5884824064        5.2010055262       16.0067898240
  C        20.9068368103        5.4720914805       16.2744069948
  N         8.7507122238        5.1661399554        5.1661413498
  C        10.0725525058        5.4243129421        5.4243117990
  N         6.6029027295       19.7262851789       17.5734711815
  C         6.3345204764       21.0428187683       17.2992892825
  N         6.6370546253        8.8998592749        6.7465589841
  C         6.3653092540       10.2191044416        6.4825328354
  N         6.5875595158        3.0367478009        5.1920025242
  C         6.3218765967        1.7204695678        5.4682564951
  N         6.6431144322       13.8609486195       16.0140517939
  C         6.3718285873       12.5424300446       16.2803402131
  N        15.8977580739        3.0355095474       17.5732071132
  C        16.1631207137        1.7201120928       17.2945577812
  N        15.8534586393       13.8604115212        6.7588850798
  C        16.1256455104       12.5416658140        6.4927233882
  N        15.8978188125       19.7271366775        5.1820245019
  C        16.1622501215       21.0427369922        5.4611670764
  N        15.8683325621        8.8981997024       16.0195291377
  C        16.1401343026       10.2180676769       16.2803264633
  N        17.4371193558        6.7549066609       19.7240000779
  C        17.1673617575        6.4879499723       21.0418934969
  N        17.4325007512       17.5657707627        8.9048482161
  C        17.1625827374       17.2897958463       10.2213478175
  N         5.0464915523        6.7614417619        3.0395846767
  C         5.3149173467        6.4929837580        1.7210962272
  N         5.0760734120       17.5588285036       13.8582143720
  C         5.3487365991       17.2892652849       12.5414714245
  N        17.4368560399       16.0012447422        3.0402494959
  C        17.1685831600       16.2683149603        1.7217119190
  N        17.4191145484        5.2127010693       13.8599515106
  C        17.1483983387        5.4833206643       12.5422457949
  N         5.0604550169       16.0053053050       19.7227267163
  C         5.3267552242       16.2752020455       21.0414468386
  N         5.0693329847        5.2027741630        8.9046684965
  C         5.3421191975        5.4736426260       10.2209885449
  N        17.4391947886       19.7235340392       16.0036715825
  C        17.1693945133       21.0418283794       16.2698615062
  N        17.4203142793        8.9040053080        5.2025885231
  C        17.1491181595       10.2204777615        5.4782990752
  N         5.0576442172        3.0407688615       16.0066114234
  C         5.3256372160        1.7225391220       16.2761092665
  N         5.0715611423       13.8572514882        5.2015508337
  C         5.3426369255       12.5405371507        5.4728780688
  N        17.4351726629        3.0395814532        6.7565348115
  C        17.1668164596        1.7212584147        6.4892210969
  N        17.4313917951       13.8599774809       17.5568198357
  C        17.1618281745       12.5425344711       17.2852128883
  N         5.0518395551       19.7206031864        6.7635041271
  C         5.3172911753       21.0397073689        6.4941414489
  N         5.0745366075        8.9053543146       17.5551496573
  C         5.3485289657       10.2219627722       17.2872421879
  N        19.5851434729        6.7582112435        5.2017779987
  C        20.9031836764        6.4903328808        5.4741864903
  N         8.7781526150        6.7242607278       16.0306049040
  C        10.0911604802        6.4425589797       16.3112256974
  N         2.9072545507        6.7612729029       17.5546791105
  C         1.5892220368        6.4901477556       17.2866584158
  N        13.7257592731        6.6845951693        6.6845931391
  C        12.4051210254        6.4226808476        6.4226770498
  N         2.9066082262       16.0004182916        5.2035817320
  C         1.5887228639       16.2711241689        5.4735696702
  N        13.7338127015       16.0659601975       16.0659564191
  C        12.4132232248       16.3282807732       16.3282775190
  N        19.5931123568       16.0093380521       17.5652517188
  C        20.9111724062       16.2774124023       17.2934848323
  N         8.7781527271       16.0306042963        6.7242618719
  C        10.0911616215       16.3112243726        6.4425587900
  N         6.5997108829       17.5753499194        3.0389086907
  C         6.3331485854       17.3003238716        1.7222243499
  N         6.6373450323        6.7475246695       13.8595729320
  C         6.3649898208        6.4825402025       12.5409946533
  N         6.5938989349        5.1949060959       19.7258019329
  C         6.3247160996        5.4696903970       21.0418076291
  N         6.6430146233       16.0120521512        8.9017339486
  C         6.3722609685       16.2789145847       10.2206363674
  N        15.8991706483       17.5753683961       19.7273797116
  C        16.1635992928       17.2959838102       21.0430113573
  N        15.8545848518        6.7476714798        8.8967857196
  C        16.1261773887        6.4873147597       10.2166811274
  N        15.8971425187        5.1829918055        3.0347867930
  C        16.1621874464        5.4621562255        1.7195948201
  N        15.8660267291       16.0112513887       13.8613813042
  C        16.1390173741       16.2759243593       12.5423221243
 Zn        14.5641492455       14.7714053806       14.7714032273
 Cl        13.0941155668       13.6843111088       13.6843193418
 Zn        14.6092898666        3.8574916808        3.8574945304
 Cl        13.4324657550        2.5997225233        2.5997275784
 Zn         3.7761246167       14.7128576388        3.9081562955
 Cl         2.5359153374       13.4764317466        2.6867326097
 Zn         3.7761230011        3.9081570800       14.7128574938
 Cl         2.5359138932        2.6867332823       13.4764316036
 Zn         7.9411043219        8.0247442600       14.7275915028
 Cl         9.1542482652        9.2662461269       13.4862093121
 Zn         7.8845363600       18.8796854561        3.8934229553
 Cl         9.1059411375       20.1200916220        2.6576853187
 Zn        18.7199050949        8.0508680729        3.9075943108
 Cl        19.9423092102        9.2999508133        2.6829797705
 Zn        18.7256938729       18.8518694920       14.7151728353
 Cl        19.9501587506       20.0789267096       13.4688279122
 Zn         7.9411043935       14.7275913185        8.0247455131
 Cl         9.1542474710       13.4862068602        9.2662460542
 Zn         7.8845348468        3.8934229856       18.8796854122
 Cl         9.1059353147        2.6576855003       20.1200961765
 Zn        18.7256941530       14.7151737898       18.8518615806
 Cl        19.9501592608       13.4688330415       20.0789239013
 Zn        18.7199055869        3.9075948868        8.0508683661
 Cl        19.9423083323        2.6829832762        9.2999551882
 Zn        14.5535419546        7.9787670854        7.9787656062
 Cl        13.0676756967        9.0555599894        9.0555553895
 Zn        14.6104546336       18.8921056953       18.8921049517
 Cl        13.4315470052       20.1497181342       20.1497182818
 Zn         3.7740072750        8.0569279161       18.8413341075
 Cl         2.5324634762        9.2934524090       20.0622967408
 Zn         3.7740082352       18.8413341272        8.0569278222
 Cl         2.5324649478       20.0622976287        9.2934514929
 Zn        14.5594106041       14.7811724396        7.9979185306
 Cl        13.0807874769       13.7789957127        9.1529273968
 Zn        14.6091809912        3.8620521386       18.8919742598
 Cl        13.4311481729        2.6039189307       20.1492704259
 Zn         3.7792812725       14.7128496973       18.8487296202
 Cl         2.5394861927       13.4773230714       20.0723032685
 Zn         3.7687274889        3.9126617951        8.0563348766
 Cl         2.5267264907        2.6955011652        9.2948857798
 Zn         7.9394622303        8.0215833013        8.0215838348
 Cl         9.1551988250        9.2623809430        9.2623793935
 Zn         7.8908699558       18.8753276966       18.8753279381
 Cl         9.1180574493       20.1104591508       20.1104558479
 Zn        18.7253213016        8.0484063663       18.8602009880
 Cl        19.9536501116        9.2858381960       20.0910341053
 Zn        18.7253229173       18.8601995427        8.0484047637
 Cl        19.9536509958       20.0910358012        9.2858345130
 Zn        14.5594101781        7.9979180408       14.7811727380
 Cl        13.0807856230        9.1529294525       13.7789997932
 Zn        14.6091811730       18.8919719229        3.8620500362
 Cl        13.4311491179       20.1492701227        2.6039188909
 Zn         3.7687295205        8.0563350817        3.9126606740
 Cl         2.5267254760        9.2948844992        2.6955017675
 Zn         3.7792820201       18.8487309156       14.7128494956
 Cl         2.5394879348       20.0723048361       13.4773217518
 Zn         7.9427101518       14.7287878657       14.7287881310
 Cl         9.1522619276       13.4861014668       13.4861003473
 Zn         7.8701835675        3.8862304765        3.8862309282
 Cl         9.0862729595        2.6450000089        2.6450032282
 Zn        18.7198479306       14.7127551958        3.9147940018
 Cl        19.9389724077       13.4545446906        2.6950839051
 Zn        18.7198470804        3.9147955066       14.7127563244
 Cl        19.9389701535        2.6950816420       13.4545474470
 Zn         5.8412660969        5.9717292449       16.7846480189
 Zn        16.6594825987       16.8081789484       16.8081749540
 Zn        16.6548018792        5.9530330102        5.9530333684
 Zn         5.8412667874       16.7846484090        5.9717290494
 Zn         5.8363246463        5.9691494948        5.9691493442
 Zn        16.6571453397       16.8117634292        5.9570622725
 Zn         5.8447370806       16.7854738830       16.7854739408
 Zn        16.6571449012        5.9570634817       16.8117652008
  N         3.6531927051        5.9828218922       16.7769153141
  N        14.4647085812        5.9060950250        5.9060949139
  N        18.8464771200       16.7881434153       16.7881397758
  N         8.0206963985       16.8070342995        5.9559964748
  N        18.8387724157        5.9787789222        5.9787781817
  N         8.0206961646        5.9559956817       16.8070349714
  N         3.6531945936       16.7769160299        5.9828202495
  N        14.4729070910       16.8445338606       16.8445330001
  N        16.6671372400        3.7831718123        5.9657832264
  N        16.6479405802       14.6077072174       16.7870189754
  N        16.6707499113       18.9795571425       16.7935428902
  N        16.6376930911        8.1535456656        5.9702060366
  N         5.8241488484       18.9763358070        5.9775321489
  N         5.8573748768        8.1571912084       16.7839682069
  N         5.8285073813        3.7865869239       16.7924518686
  N         5.8548602581       14.6046465252        5.9728885787
  N         5.8285108683       16.7924498125        3.7865864705
  N         5.8548597703        5.9728879571       14.6046467554
  N        16.6707533763       16.7935451735       18.9795542679
  N        16.6376938753        5.9702092622        8.1535457451
  N         5.8241466946        5.9775320870       18.9763357571
  N         5.8573752057       16.7839678960        8.1571912201
  N        16.6671366765        5.9657799264        3.7831731938
  N        16.6479399416       16.7870238096       14.6077065506
  N         5.8166401885        3.7849003099        5.9743934362
  N         5.8590012293       14.6057755927       16.7871534472
  N        16.6690678927       18.9798073421        5.9647051049
  N        16.6496626627        8.1546502161       16.7975360098
  N         5.8324886109       18.9776308793       16.7906555059
  N         5.8526938088        8.1558786741        5.9727347268
  N        16.6681164052        3.7840992356       16.7910167925
  N        16.6364314407       14.6073541396        5.9833328832
  N         3.6570368699       16.7808101299       16.7808088709
  N        14.4695822685       16.8455155833        5.9128553136
  N        18.8425609370       16.7872631988        5.9774570507
  N         8.0241628761       16.8046363324       16.8046381470
  N        18.8425597350        5.9774584061       16.7872640121
  N         8.0156781594        5.9495766713        5.9495774151
  N         3.6490575013        5.9851590921        5.9851583808
  N        14.4695809691        5.9128568732       16.8455178133
  N        16.6690654648        5.9647083553       18.9798097190
  N        16.6496641084       16.7975368382        8.1546493210
  N        16.6681159183       16.7910129543        3.7840976467
  N        16.6364274802        5.9833298534       14.6073532874
  N         5.8166433690        5.9743952848        3.7849000306
  N         5.8590008556       16.7871528143       14.6057755057
  N         5.8324867012       16.7906580499       18.9776304427
  N         5.8526943359        5.9727327556        8.1558789126
  C        11.2598750314       15.7707416137       15.7707365187
  H        11.2769014559       14.9954278159       14.9954195837
  C        11.2255987226        4.8651975666        4.8651966749
  H        11.2109083511        4.0900234549        4.0900242134
  C         0.4274244133       15.7221176568        4.9231908263
  H         0.4279780178       14.9457194636        4.1485399551
  C         0.4274219795        4.9231983997       15.7221116689
  H         0.4279752580        4.1485527805       14.9457083535
  C        11.2566853946        6.9816083911       15.7665905766
  H        11.2735170016        7.7564937156       14.9909232882
  C        11.2313472570       17.8901731297        4.8738300527
  H        11.2175652941       18.6683028354        4.1014772141
  C         0.4241662523        7.0420303402        4.9256540832
  H         0.4251787855        7.8178566886        4.1503997093
  C         0.4320075949       17.8419514869       15.7254337123
  H         0.4328339511       18.6168072550       14.9491993179
  C        11.2566856317       15.7665898216        6.9816082743
  H        11.2735172898       14.9909232490        7.7564948461
  C        11.2313467913        4.8738321494       17.8901766815
  H        11.2175650065        4.1014801033       18.6683069196
  C         0.4320060248       15.7254319531       17.8419448231
  H         0.4328313227       14.9491946350       18.6167977499
  C         0.4241665921        4.9256580447        7.0420322981
  H         0.4251792379        4.1504061137        7.8178610685
  C        11.2524131988        6.9807862668        6.9807803464
  H        11.2698748840        7.7560606331        7.7560521867
  C        11.2350064802       17.8865687561       17.8865701520
  H        11.2219161772       18.6618349577       18.6618377045
  C         0.4288343503        7.0389927516       17.8391067324
  H         0.4301774745        7.8146357867       18.6145913006
  C         0.4288355378       17.8391013771        7.0389958746
  H         0.4301781454       18.6145827993        7.8146423569
  C        15.5856189570       11.3789496286       15.7328430870
  H        14.7963663653       11.3751781624       14.9723149275
  C        15.6159190614        0.5613495798        4.9056942538
  H        14.8495206431        0.5619310043        4.1206430091
  C         4.7877940612       11.3807676664        4.9270312091
  H         4.0070440644       11.3807526410        4.1567278551
  C         4.7804738016        0.5619440884       15.7203381682
  H         4.0109267683        0.5621720926       14.9389033052
  C        15.5723744672       11.3777752997        7.0350360801
  H        14.7854021888       11.3738350918        7.7974669846
  C        15.6166091409        0.5617610909       17.8506452036
  H        14.8493831829        0.5623496418       18.6349135248
  C         4.7939991008       11.3813637865       17.8347438351
  H         4.0126355620       11.3808030178       18.6045639134
  C         4.7706976940        0.5601399026        7.0492279545
  H         4.0015371704        0.5600828777        7.8309799714
  C         6.9257786149       11.3818986233       15.7326336936
  H         7.7049470751       11.3828432114       14.9607408754
  C         6.8700086669        0.5614893159        4.9144204978
  H         7.6397367957        0.5623426019        4.1329676806
  C        17.7019989891       11.3826557771        4.9344464015
  H        18.4803833248       11.3847960406        4.1613609471
  C        17.7134220019        0.5616517861       15.7117846105
  H        18.4819357962        0.5612381424       14.9294522793
  C         6.9182582813       11.3800653562        7.0304238303
  H         7.6972493009       11.3804946469        7.8026237211
  C         6.8806840778        0.5626320401       17.8540357998
  H         7.6510431595        0.5630344063       18.6348076935
  C        17.7156386131       11.3831340411       17.8340833046
  H        18.4933784975       11.3852197219       18.6077194167
  C        17.7113272791        0.5614902938        7.0462465072
  H        18.4796281281        0.5610620137        7.8288491304
  C        15.5856250429       15.7328404260       11.3789501299
  H        14.7963727547       14.9723117681       11.3751790400
  C        15.6159236871        4.9056881351        0.5613503803
  H        14.8495295336        4.1206331156        0.5619308826
  C         4.7804770157       15.7203355554        0.5619440962
  H         4.0109302598       14.9389003627        0.5621726483
  C         4.7877930489        4.9270312649       11.3807678667
  H         4.0070415613        4.1567292499       11.3807527903
  C         6.9257768958       15.7326318526       11.3818984357
  H         7.7049453038       14.9607389335       11.3828427063
  C         6.8700070871        4.9144189137        0.5614882976
  H         7.6397348058        4.1329655454        0.5623404561
  C        17.7134259487       15.7117870367        0.5616483270
  H        18.4819391109       14.9294539186        0.5612343287
  C        17.7019977122        4.9344455241       11.3826557559
  H        18.4803804775        4.1613587515       11.3847953411
  C        15.5723775845        7.0350403650       11.3777756027
  H        14.7854078093        7.7974733994       11.3738355717
  C        15.6166184043       17.8506518408        0.5617591844
  H        14.8493949469       18.6349228804        0.5623481077
  C         4.7706953199        7.0492256736        0.5601402506
  H         4.0015337270        7.8309764623        0.5600839913
  C         4.7939979022       17.8347424214       11.3813640528
  H         4.0126346134       18.6045627620       11.3808033596
  C         6.9182602760        7.0304208905       11.3800655686
  H         7.6972522037        7.8026197834       11.3804947106
  C         6.8806856829       17.8540350054        0.5626311070
  H         7.6510440760       18.6348075213        0.5630332541
  C        17.7113236195        7.0462492273        0.5614929016
  H        18.4796221813        7.8288541185        0.5610658889
  C        17.7156462551       17.8340789014       11.3831327646
  H        18.4933878588       18.6077134018       11.3852178570
 Kr        13.2952121863       11.3622212581       11.3622223950
