     409
 i =      96, E =    -5186.5831805302
  N         2.8230198337        5.2054493557       16.0176610495
  C         1.5050960072        5.4769685235       16.2859511012
  N        13.6397816017        5.2042938351        5.2043018950
  C        12.3224069503        5.4745751392        5.4745818658
  N        19.5085519679       17.5735567206       16.0175106884
  C        20.8264230593       17.3018766047       16.2858626184
  N         8.6867662030       17.5757406828        5.2073945110
  C        10.0044132897       17.3041451593        5.4755020165
  N        19.5026998732        5.2047221310        6.7608500459
  C        20.8206148550        5.4767315298        6.4928085896
  N         8.6867706145        5.2073893846       17.5757419147
  C        10.0044127743        5.4754972839       17.3041423180
  N         2.8225379114       17.5737581253        6.7617993428
  C         1.5047348576       17.3020243632        6.4929911083
  N        13.6449754888       17.5731342364       17.5731358546
  C        12.3273366840       17.3034449847       17.3034444931
  N        15.7905592842        3.0471767458        5.2031049634
  C        16.0592457221        1.7293590750        5.4740929455
  N        15.7967512675       13.8654444612       16.0154454316
  C        16.0670373703       12.5481909947       16.2846732487
  N        15.7956841433       19.7300501685       17.5715264033
  C        16.0637441863       21.0479025192       17.2994480865
  N        15.7926298597        8.9113998178        6.7606725403
  C        16.0636098031       10.2285598280        6.4914124277
  N         6.5347638938       19.7330989861        5.2082525579
  C         6.2656701908       21.0510404310        5.4792107891
  N         6.5363212745        8.9129401281       16.0188510477
  C         6.2671268373       10.2303990514       16.2892953085
  N         6.5375633154        3.0508204476       17.5767212892
  C         6.2702340477        1.7327684798       17.3046413316
  N         6.5353105181       13.8677406831        6.7617177230
  C         6.2652403283       12.5504590269        6.4917825893
  N         4.9821565161       16.0200559789        3.0500570852
  C         5.2546072173       16.2882647488        1.7323853376
  N         4.9801100072        5.2051875853       13.8681228006
  C         5.2496860634        5.4753603613       12.5506431824
  N        17.3506010641       16.0144721163       19.7298675917
  C        17.0791762368       16.2828259718       21.0478883367
  N        17.3475533287        5.2041333844        8.9105630750
  C        17.0791693360        5.4750442912       10.2280701256
  N         4.9775276403        6.7629436384       19.7331190598
  C         5.2488375837        6.4944663318       21.0510194123
  N         4.9802043560       17.5748873038        8.9132251759
  C         5.2510847942       17.3053146176       10.2306064674
  N        17.3457445723        6.7594201585        3.0471286593
  C        17.0747853529        6.4904300937        1.7293122776
  N        17.3529743779       17.5709703018       13.8654787609
  C        17.0831273652       17.3005472492       12.5480262054
  N         4.9766467255        3.0499778681        6.7624263435
  C         5.2484680769        1.7322284538        6.4941670369
  N         4.9826045110       13.8682677515       17.5760432418
  C         5.2521853958       12.5507837311       17.3058433112
  N        17.3457622964       19.7301569982        6.7590022625
  C        17.0746911311       21.0480594897        6.4901838315
  N        17.3493352675        8.9103213288       17.5725858166
  C        17.0813586983       10.2279350109       17.3013117720
  N         4.9832432797       19.7331207832       16.0197272521
  C         5.2550304763       21.0509890770       16.2880333721
  N         4.9781563140        8.9131958450        5.2063885265
  C         5.2487753730       10.2306030259        5.4759551780
  N        17.3503088939        3.0474025226       16.0142008900
  C        17.0791338262        1.7294377134       16.2826625667
  N        17.3508976096       13.8653890618        5.2056448404
  C        17.0807637902       12.5480303635        5.4757335975
  N         2.8259011135       16.0185077250       17.5746827599
  C         1.5079794422       16.2861798962       17.3022304896
  N        13.6419259351       16.0154737779        6.7589118396
  C        12.3246476078       16.2859702448        6.4892931261
  N        19.5057994933       16.0173791773        5.2051476625
  C        20.8235769229       16.2860454155        5.4768834596
  N         8.6888878598       16.0187646940       16.0187645938
  C        10.0064120138       16.2882749418       16.2882752416
  N        19.5052053784        6.7603491798       17.5743146295
  C        20.8232266629        6.4924975158       17.3025212059
  N         8.6851880248        6.7611036112        6.7611086259
  C        10.0025410990        6.4909556774        6.4909654786
  N         2.8199687076        6.7628528411        5.2066834550
  C         1.5021185478        6.4936596962        5.4776227911
  N        13.6419202878        6.7589201026       16.0154621474
  C        12.3246405606        6.4892997800       16.2859591252
  N        15.7910453455        5.2020817671       19.7300894657
  C        16.0593013507        5.4735557740       21.0480426234
  N        15.7940935333       16.0162693283        8.9112610568
  C        16.0656260184       16.2850959062       10.2283910070
  N        15.7949427829       17.5706896009        3.0469979833
  C        16.0635576272       17.2990242658        1.7292747399
  N        15.7949853443        6.7613414457       13.8653542682
  C        16.0648323498        6.4917231173       12.5481172175
  N         6.5330807643        5.2071114690        3.0503220593
  C         6.2649397905        5.4787037696        1.7324389164
  N         6.5380326946       16.0196498531       13.8679006138
  C         6.2679745301       16.2896522389       12.5505589985
  N         6.5392510048       17.5760028911       19.7331346681
  C         6.2709154758       17.3042705653       21.0511306588
  N         6.5340441460        6.7624746514        8.9131235446
  C         6.2645937006        6.4921764472       10.2304872604
  N        19.5052078209       17.5743053561        6.7603528884
  C        20.8232095249       17.3025139946        6.4924925717
  N         8.6895765115       17.5746624829       17.5746611395
  C        10.0069819252       17.3042524241       17.3042524475
  N         2.8199677958        5.2066832847        6.7628533817
  C         1.5021156085        5.4776233368        6.4936586803
  N        13.6422387255        5.2026439832       17.5715066015
  C        12.3247596334        5.4733485226       17.3020663534
  N         2.8259011288       17.5746855193       16.0185062539
  C         1.5079782277       17.3022325909       16.2861779965
  N        13.6422405610       17.5714999927        5.2026542616
  C        12.3247765724       17.3020650183        5.4733545216
  N        19.5057957494        5.2051396019       16.0173848238
  C        20.8235952207        5.4768782609       16.2860429144
  N         8.6841048550        5.2054367304        5.2054412853
  C        10.0019434731        5.4749867945        5.4749969132
  N         6.5392564934       19.7331497290       17.5760062277
  C         6.2709136905       21.0511238118       17.3042670779
  N         6.5340350450        8.9131101919        6.7624693986
  C         6.2645917663       10.2305002575        6.4921812574
  N         6.5330767437        3.0503364278        5.2071171331
  C         6.2649433542        1.7324311887        5.4787024508
  N         6.5380407173       13.8678877280       16.0196436581
  C         6.2679746605       12.5505719268       16.2896548955
  N        15.7949375417        3.0470139160       17.5706878717
  C        16.0635504548        1.7292502237       17.2990298817
  N        15.7949943981       13.8653313081        6.7613608150
  C        16.0648500907       12.5481382307        6.4917145968
  N        15.7910475640       19.7300973498        5.2020826277
  C        16.0593000310       21.0480199573        5.4735622967
  N        15.7940881885        8.9112495511       16.0162822624
  C        16.0656224290       10.2284120874       16.2850866743
  N        17.3457675664        6.7590081005       19.7301499632
  C        17.0747042918        6.4901891384       21.0480747118
  N        17.3493459652       17.5725801957        8.9103338235
  C        17.0813478433       17.3013072718       10.2279121712
  N         4.9766395629        6.7624311332        3.0499641032
  C         5.2484675569        6.4941655623        1.7322368894
  N         4.9826097136       17.5760374570       13.8682800144
  C         5.2521819117       17.3058441254       12.5507700841
  N        17.3503098418       16.0142072265        3.0473894465
  C        17.0791255949       16.2826728621        1.7294564181
  N        17.3508786500        5.2056361310       13.8654131368
  C        17.0807704732        5.4757176279       12.5480033586
  N         4.9832492628       16.0197346798       19.7331056696
  C         5.2550293114       16.2880339853       21.0509958455
  N         4.9781520380        5.2063805860        8.9132089219
  C         5.2487812160        5.4759538234       10.2305904620
  N        17.3506071670       19.7298878207       16.0144638094
  C        17.0791695259       21.0478754611       16.2828240281
  N        17.3475489215        8.9105413312        5.2041530647
  C        17.0791774774       10.2281050424        5.4750540493
  N         4.9821567101        3.0500705030       16.0200573973
  C         5.2546015073        1.7323729565       16.2882585194
  N         4.9801055013       13.8681122253        5.2051862678
  C         5.2496875748       12.5506617101        5.4753687039
  N        17.3457349372        3.0471420385        6.7594192591
  C        17.0747863635        1.7293064417        6.4904333114
  N        17.3529816999       13.8654654349       17.5709827115
  C        17.0831255546       12.5480459896       17.3005497357
  N         4.9775284207       19.7331304763        6.7629445475
  C         5.2488447108       21.0510056977        6.4944605755
  N         4.9802068195        8.9132152803       17.5748849022
  C         5.2510807637       10.2306250250       17.3053207124
  N        19.5026970189        6.7608515658        5.2047215202
  C        20.8206195216        6.4928093800        5.4767319295
  N         8.6870979223        6.7618101925       16.0187581276
  C        10.0045257018        6.4908210730       16.2875415702
  N         2.8225279971        6.7618073741       17.5737693764
  C         1.5047390910        6.4929920999       17.3020306196
  N        13.6399447064        6.7604708113        6.7604789165
  C        12.3226083017        6.4905913891        6.4905976643
  N         2.8230316633       16.0176690634        5.2054604067
  C         1.5050917481       16.2859507549        5.4769734322
  N        13.6438521944       16.0170172875       16.0170191175
  C        12.3266330832       16.2874129194       16.2874123344
  N        19.5085512920       16.0175119879       17.5735552793
  C        20.8264253513       16.2858652150       17.3018743105
  N         8.6870935533       16.0187656672        6.7618061055
  C        10.0045222192       16.2875487486        6.4908211141
  N         6.5375667027       17.5767235056        3.0508067930
  C         6.2702304362       17.3046378395        1.7327807511
  N         6.5353095624        6.7617140188       13.8677523056
  C         6.2652485917        6.4917848487       12.5504402376
  N         6.5347591996        5.2082556450       19.7330870009
  C         6.2656722803        5.4792067206       21.0510534191
  N         6.5363239172       16.0188482249        8.9129503771
  C         6.2671209869       16.2892995527       10.2303810002
  N        15.7956919836       17.5715201100       19.7300306264
  C        16.0637445288       17.2994556476       21.0479158269
  N        15.7926076096        6.7606807263        8.9114196836
  C        16.0635990650        6.4914064878       10.2285315137
  N        15.7905573936        5.2030950984        3.0471597948
  C        16.0592492270        5.4740941372        1.7293690460
  N        15.7967660538       16.0154554130       13.8654609984
  C        16.0670408428       16.2846729007       12.5481717348
 Zn        14.5022229041       14.7227766316       14.7227736382
 Cl        13.2688719450       13.4910952552       13.4910950003
 Zn        14.4999396961        3.9092613227        3.9092596951
 Cl        13.2593254578        2.6810971641        2.6810966468
 Zn         3.6871475376       14.7269653676        3.9097161395
 Cl         2.4585847530       13.4914990743        2.6771003344
 Zn         3.6871395708        3.9097096213       14.7269556658
 Cl         2.4585825080        2.6771010315       13.4914994186
 Zn         7.8306634480        8.0548618505       14.7242201244
 Cl         9.0618785009        9.2869922849       13.4910230428
 Zn         7.8285145846       18.8715725529        3.9150263575
 Cl         9.0651666776       20.1041038100        2.6874173005
 Zn        18.6388021802        8.0514680792        3.9084305604
 Cl        19.8688503028        9.2868589864        2.6769361832
 Zn        18.6461299248       18.8670038968       14.7242331635
 Cl        19.8761377581       20.0940602236       13.4845774284
 Zn         7.8306561813       14.7242291330        8.0548524909
 Cl         9.0618786195       13.4910245611        9.2869908232
 Zn         7.8285205733        3.9150213204       18.8715788307
 Cl         9.0651649660        2.6874188697       20.1041033680
 Zn        18.6461322211       14.7242350422       18.8670038074
 Cl        19.8761379522       13.4845761206       20.0940592632
 Zn        18.6387952516        3.9084397506        8.0514600035
 Cl        19.8688447210        2.6769423024        9.2868557576
 Zn        14.4996771105        8.0543715558        8.0543670802
 Cl        13.2684082066        9.2871252387        9.2871243022
 Zn        14.5054942891       18.8677232827       18.8677228124
 Cl        13.2694956916       20.0980497436       20.0980495627
 Zn         3.6847765661        8.0542551788       18.8687826689
 Cl         2.4519685351        9.2929131100       20.0940184028
 Zn         3.6847841075       18.8687746962        8.0542450912
 Cl         2.4519712714       20.0940179428        9.2929115928
 Zn        14.5009018785       14.7224760547        8.0540639212
 Cl        13.2684546188       13.4904751279        9.2863764870
 Zn        14.5025189440        3.9069389502       18.8654472867
 Cl        13.2641168236        2.6732269358       20.0900900465
 Zn         3.6886352667       14.7272558699       18.8706384005
 Cl         2.4583915472       13.4909161173       20.1006788825
 Zn         3.6836572138        3.9121227446        8.0544166403
 Cl         2.4524712180        2.6842965586        9.2922579617
 Zn         7.8298266161        8.0549672175        8.0549668082
 Cl         9.0617816231        9.2872707021        9.2872705534
 Zn         7.8320573809       18.8696915112       18.8696890087
 Cl         9.0719656661       20.0980328546       20.0980316094
 Zn        18.6396257901        8.0510308685       18.8694498168
 Cl        19.8684263140        9.2871121074       20.1014942400
 Zn        18.6396036101       18.8694364151        8.0510165422
 Cl        19.8684219109       20.1014877129        9.2871082253
 Zn        14.5008964002        8.0540737966       14.7224685443
 Cl        13.2684550169        9.2863752625       13.4904780655
 Zn        14.5025320660       18.8654297550        3.9069518352
 Cl        13.2641170002       20.0900872675        2.6732264939
 Zn         3.6836569435        8.0544172433        3.9121209689
 Cl         2.4524695664        9.2922586587        2.6842955680
 Zn         3.6886349478       18.8706409735       14.7272539750
 Cl         2.4583914017       20.1006800145       13.4909137975
 Zn         7.8318720963       14.7246499820       14.7246494809
 Cl         9.0623722013       13.4916182427       13.4916178390
 Zn         7.8241357331        3.9114839228        3.9114817290
 Cl         9.0583646878        2.6802082122        2.6802081002
 Zn        18.6450619652       14.7239461098        3.9109936376
 Cl        19.8761061576       13.4851285197        2.6841033711
 Zn        18.6450781253        3.9109824387       14.7239354807
 Cl        19.8761083229        2.6841004152       13.4851299868
 Zn         5.7521039853        5.9869641201       16.7994737942
 Zn        16.5709821379       16.7942786482       16.7942713568
 Zn        16.5657093524        5.9828231248        5.9828256152
 Zn         5.7521016612       16.7994765213        5.9869611034
 Zn         5.7491865950        5.9869068115        5.9869048068
 Zn        16.5679733554       16.7939654998        5.9821664552
 Zn         5.7567781794       16.8001803987       16.8001750169
 Zn        16.5679731788        5.9821833478       16.7939495978
  N         3.5690903122        5.9828559786       16.7967093702
  N        14.3861931593        5.9822529525        5.9822534304
  N        18.7617997394       16.7964923002       16.7964871677
  N         7.9402264822       16.7980373535        5.9854106878
  N        18.7561057762        5.9816640705        5.9816631554
  N         7.9402266625        5.9854121651       16.7980362638
  N         3.5690889261       16.7967110574        5.9828536813
  N        14.3907392088       16.7949015091       16.7949009450
  N        16.5687137103        3.7938813304        5.9807015423
  N        16.5745756504       14.6119499990       16.7935887847
  N        16.5740302887       18.9833261566       16.7940862833
  N        16.5692658135        8.1645293027        5.9819022038
  N         5.7554358641       18.9865765575        5.9848892485
  N         5.7577283928        8.1668025307       16.7965961981
  N         5.7583459689        3.7971197476       16.7995389882
  N         5.7577884473       14.6145491543        5.9834226316
  N         5.7583485825       16.7995405122        3.7971311655
  N         5.7577865735        5.9834222921       14.6145322600
  N        16.5740283996       16.7940878818       18.9833375601
  N        16.5692662403        5.9819057550        8.1645043623
  N         5.7554345500        5.9848910141       18.9865883969
  N         5.7577298209       16.7965968838        8.1667863264
  N        16.5687156830        5.9807013724        3.7938903393
  N        16.5745764487       16.7935928352       14.6119334108
  N         5.7537906997        3.7968878609        5.9838050063
  N         5.7604075916       14.6147216087       16.7978953350
  N        16.5691541655       18.9834480923        5.9797996613
  N        16.5706424697        8.1643243689       16.7951720083
  N         5.7601721955       18.9866421674       16.7988760011
  N         5.7556917365        8.1668576227        5.9846815597
  N        16.5732821482        3.7938494444       16.7933683871
  N        16.5728261938       14.6118805704        5.9833461420
  N         3.5722591641       16.7980080340       16.7980067995
  N        14.3884077462       16.7932337086        5.9805044268
  N        18.7588137117       16.7967397904        5.9816483599
  N         7.9426119213       16.7969424831       16.7969398725
  N        18.7588319090        5.9816499850       16.7967459964
  N         7.9379667498        5.9834505788        5.9834489437
  N         3.5662890888        5.9842962734        5.9842926828
  N        14.3883928176        5.9805134681       16.7932265096
  N        16.5691614779        5.9798119919       18.9834679950
  N        16.5706402557       16.7951636801        8.1643011567
  N        16.5732784997       16.7933747908        3.7938707678
  N        16.5728248547        5.9833455758       14.6118569157
  N         5.7537893244        5.9838061776        3.7968953362
  N         5.7604074255       16.7978960722       14.6147093467
  N         5.7601719501       16.7988782332       18.9866483287
  N         5.7556933253        5.9846832398        8.1668461693
  C        11.1661138969       15.7372496831       15.7372499440
  H        11.1655631661       14.9616406991       14.9616424053
  C        11.1618890394        4.9243387952        4.9243484858
  H        11.1617624002        4.1488117292        4.1488232112
  C         0.3443584535       15.7350003790        4.9274738514
  H         0.3443487699       14.9588554132        4.1524980943
  C         0.3443626646        4.9274741422       15.7350054576
  H         0.3443516806        4.1525029397       14.9588689499
  C        11.1645158918        7.0403504522       15.7358336100
  H        11.1644927176        7.8157242464       14.9600057695
  C        11.1645184496       17.8536017881        4.9239945538
  H        11.1645027269       18.6293005962        4.1486186644
  C         0.3413755342        7.0439484442        4.9274557485
  H         0.3416908792        7.8197044515        4.1521176870
  C         0.3472376134       17.8513934199       15.7349524580
  H         0.3473672222       18.6262502604       14.9587073504
  C        11.1645160259       15.7358355256        7.0403548736
  H        11.1644959149       14.9600005974        7.8157363061
  C        11.1645132943        4.9239935297       17.8535958669
  H        11.1644982647        4.1486233930       18.6292881326
  C         0.3472388482       15.7349539923       17.8513919891
  H         0.3473675445       14.9587081165       18.6262491494
  C         0.3413724648        4.9274579270        7.0439446179
  H         0.3416882178        4.1521204797        7.8196999019
  C        11.1626646818        7.0413909062        7.0413998294
  H        11.1628441940        7.8170002759        7.8170112740
  C        11.1675134614       17.8542924785       17.8542924470
  H        11.1679341601       18.6298242558       18.6298248602
  C         0.3439904805        7.0434991753       17.8519184043
  H         0.3444703344        7.8193867946       18.6271050830
  C         0.3439858107       17.8519167830        7.0435019911
  H         0.3444648120       18.6271078543        7.8193980074
  C        15.5159414825       11.3884921373       15.7338743886
  H        14.7403015512       11.3887528696       14.9582948435
  C        15.5087075898        0.5687965397        4.9238156452
  H        14.7330554551        0.5693113437        4.1483738762
  C         4.6988524743       11.3906849950        4.9250005948
  H         3.9234006636       11.3906394231        4.1493873854
  C         4.7054970572        0.5716380886       15.7370561674
  H         3.9305442881        0.5717895984       14.9609116960
  C        15.5136035353       11.3885079288        7.0424511797
  H        14.7377099444       11.3887409275        7.8177875279
  C        15.5129913915        0.5686405037       17.8490597002
  H        14.7372372972        0.5690568590       18.6244208163
  C         4.7011862879       11.3908081140       17.8560935391
  H         3.9254801485       11.3908464413       18.6314456459
  C         4.6985720738        0.5715923140        7.0447861271
  H         3.9228884346        0.5717828644        7.8201824615
  C         6.8181641107       11.3903386773       15.7388775582
  H         7.5936497791       11.3900910653       14.9631583412
  C         6.8165011357        0.5717801500        4.9296334953
  H         7.5929188859        0.5718721512        4.1549436598
  C        17.6305183900       11.3878078985        4.9247641187
  H        18.4057073282       11.3875062679        4.1488703518
  C        17.6285105083        0.5686428202       15.7316219596
  H        18.4033408947        0.5687015051       14.9553483020
  C         6.8152632954       11.3903930093        7.0429411268
  H         7.5902693684       11.3902458948        7.8191413109
  C         6.8213332909        0.5720233062       17.8541077678
  H         7.5970296053        0.5721161536       18.6294934807
  C        17.6330174415       11.3877244845       17.8512410670
  H        18.4084473509       11.3873867635       18.6268953636
  C        17.6243150858        0.5686085772        7.0413494412
  H        18.3992400286        0.5685760194        7.8175790455
  C        15.5159395493       15.7338736675       11.3884851361
  H        14.7403000416       14.9582864412       11.3887477609
  C        15.5087141839        4.9238166386        0.5688004293
  H        14.7330665623        4.1483790429        0.5693135131
  C         4.7054972792       15.7370576222        0.5716348688
  H         3.9305419478       14.9609101524        0.5717887034
  C         4.6988579113        4.9249972693       11.3906842515
  H         3.9234092966        4.1493866906       11.3906351410
  C         6.8181626426       15.7388761014       11.3903375235
  H         7.5936504838       14.9631541198       11.3900881543
  C         6.8164981758        4.9296337302        0.5717780965
  H         7.5929131688        4.1549461244        0.5718712699
  C        17.6285154238       15.7316229383        0.5686415773
  H        18.4033515473       14.9553452190        0.5687045364
  C        17.6305115023        4.9247560172       11.3878010744
  H        18.4056925102        4.1488591006       11.3874949083
  C        15.5135936094        7.0424471076       11.3885063815
  H        14.7376964762        7.8177756978       11.3887362840
  C        15.5129926057       17.8490632772        0.5686413005
  H        14.7372355462       18.6244286828        0.5690594348
  C         4.6985699031        7.0447864203        0.5715914309
  H         3.9228882879        7.8201800183        0.5717840106
  C         4.7011841087       17.8560924536       11.3908061574
  H         3.9254753899       18.6314469368       11.3908418370
  C         6.8152674297        7.0429377659       11.3903921323
  H         7.5902714231        7.8191353655       11.3902432137
  C         6.8213343117       17.8541095848        0.5720202294
  H         7.5970330586       18.6294975909        0.5721147761
  C        17.6243183353        7.0413472208        0.5686096796
  H        18.3992391927        7.8175720974        0.5685811968
  C        17.6330158142       17.8512408210       11.3877151202
  H        18.4084529707       18.6268942210       11.3873747385
 Kr        20.1398014485       10.7164032792       10.7164031823
