     409
 i =        8, E =     -5136.7155120665
  N         3.0634011388        5.2122603324       16.0377381286
  C         1.7455727187        5.4850795088       16.3040297802
  N        13.8806870692        5.2155733814        5.2155688456
  C        12.5627659856        5.4850404816        5.4852851944
  N        19.7443158363       17.5896969962       16.0343571005
  C        21.0619676814       17.3183366588       16.3028762227
  N         8.9243319446       17.5905082791        5.2147438598
  C        10.2419789881       17.3197233551        5.4839054693
  N        19.7442199466        5.2153495077        6.7709073567
  C        21.0618359188        5.4852285589        6.5007590845
  N         8.9255666280        5.2143047508       17.5917062929
  C        10.2431434320        5.4838289707       17.3210316254
  N         3.0610133369       17.5911579480        6.7719966573
  C         1.7434020589       17.3198940707        6.5024080838
  N        13.8804431269       17.5917249022       17.5916654574
  C        12.5628550138       17.3209676847       17.3213591134
  N        16.0346245856        3.0618295603        5.2164599445
  C        16.3036134877        1.7438830110        5.4865255097
  N        16.0354919172       13.8818851355       16.0360298387
  C        16.3050164028       12.5639375788       16.3054511453
  N        16.0335797053       19.7453177529       17.5898476559
  C        16.3024962558       21.0629613305       17.3186632488
  N        16.0342034510        8.9247564254        6.7701574960
  C        16.3036317294       10.2424198983        6.4997149580
  N         6.7702622448       19.7454095913        5.2153300326
  C         6.5003220265       21.0630654685        5.4853838818
  N         6.7724149764        8.9224125172       16.0366056054
  C         6.4989623315       10.2399921354       16.3031183976
  N         6.7717923524        3.0600929264       17.5920493626
  C         6.5016968512        1.7425102093       17.3211404812
  N         6.7706572949       13.8815394108        6.7712958737
  C         6.5002800774       12.5639608722        6.5007619959
  N         5.2160188612       16.0349897855        3.0616811409
  C         5.4861241151       16.3036591915        1.7436887244
  N         5.2228965079        5.2073223604       13.8831520802
  C         5.4895107710        5.4797247926       12.5653618781
  N        17.5892601454       16.0341895094       19.7450787578
  C        17.3179970866       16.3027816564       21.0627317519
  N        17.5898945123        5.2146332678        8.9249278543
  C        17.3191875256        5.4838212235       10.2425389509
  N         5.2152417391        6.7707152967       19.7454347027
  C         5.4847183719        6.5008610272       21.0630570536
  N         5.2140159214       17.5905029585        8.9249485966
  C         5.4832069061       17.3198013004       10.2425609982
  N        17.5906025290        6.7716081771        3.0612429585
  C        17.3198163695        6.5018223483        1.7435741417
  N        17.5910909344       17.5915908293       13.8816008982
  C        17.3207775629       17.3210923100       12.5640136227
  N         5.2150428013        3.0619757156        6.7720451009
  C         5.4847190917        1.7442238976        6.5016445000
  N         5.2115852007       13.8792529580       17.5879114661
  C         5.4805496809       12.5614136960       17.3167308988
  N        17.5903743188       19.7450521997        6.7720123758
  C        17.3194815400       21.0625715201        6.5021371882
  N        17.5908745154        8.9250906982       17.5916273807
  C        17.3205154447       10.2426024924       17.3212858746
  N         5.2154882187       19.7439490457       16.0353272384
  C         5.4856150840       21.0616329511       16.3045733347
  N         5.2147823650        8.9252057216        5.2151754595
  C         5.4843307219       10.2429183084        5.4848822314
  N        17.5906901911        3.0618759541       16.0346931408
  C        17.3190365762        1.7441087279       16.3031553882
  N        17.5901200139       13.8813867117        5.2148221597
  C        17.3194606662       12.5636398033        5.4840499855
  N         3.0610029989       16.0340946122       17.5898955437
  C         1.7432269271       16.3028106964       17.3187699607
  N        13.8810488807       16.0346909800        6.7702732398
  C        12.5632555263       16.3039908011        6.4996965887
  N        19.7443283916       16.0349946858        5.2166820718
  C        21.0621365946       16.3040834426        5.4866807665
  N         8.9238093426       16.0342865071       16.0365638721
  C        10.2416420860       16.3043095345       16.3058515599
  N        19.7466340946        6.7737541117       17.5884304921
  C        21.0642179359        6.5037446532       17.3174131265
  N         8.9239135916        6.7707867228        6.7723756053
  C        10.2414627202        6.5004347843        6.5017925507
  N         3.0606539144        6.7711496668        5.2148268737
  C         1.7429285789        6.5008811043        5.4846274236
  N        13.8816659795        6.7705021664       16.0349027412
  C        12.5639892652        6.4998721541       16.3044314023
  N        16.0354199424        5.2165489023       19.7442652372
  C        16.3044233906        5.4864299728       21.0621019904
  N        16.0355500078       16.0357866087        8.9249385609
  C        16.3051877686       16.3051965599       10.2427602431
  N        16.0336241952       17.5896299451        3.0617646549
  C        16.3023589311       17.3184882487        1.7439883583
  N        16.0342356827        6.7702473393       13.8814864256
  C        16.3035048010        6.4996427389       12.5637182390
  N         6.7697038137        5.2157075228        3.0620919803
  C         6.4998492231        5.4854105158        1.7443162519
  N         6.7696131963       16.0349949944       13.8815118594
  C         6.4988793323       16.3040817281       12.5637472233
  N         6.7711060331       17.5898630097       19.7446547087
  C         6.5012769757       17.3191806018       21.0621953614
  N         6.7690085502        6.7724990649        8.9263280844
  C         6.5003258592        6.5004370268       10.2439467793
  N        19.7446099448       17.5907279719        6.7720900685
  C        21.0621373581       17.3196272557        6.5024561234
  N         8.9240054196       17.5905005668       17.5915317912
  C        10.2415375712       17.3203026728       17.3211899418
  N         3.0608578117        5.2151555840        6.7701873319
  C         1.7430594500        5.4850626912        6.5003556584
  N        13.8819748760        5.2144774912       17.5900591091
  C        12.5642103187        5.4839177845       17.3200284003
  N         3.0609398198       17.5895868904       16.0340724783
  C         1.7431971693       17.3183727495       16.3027888552
  N        13.8810130117       17.5904147340        5.2147148771
  C        12.5632501792       17.3196936997        5.4838561693
  N        19.7459942699        5.2184038930       16.0326543131
  C        21.0639839164        5.4881245206       16.3016886068
  N         8.9235480741        5.2157497223        5.2161949213
  C        10.2413685851        5.4851870854        5.4856969891
  N         6.7712806345       19.7438824073       17.5905218625
  C         6.5013611562       21.0614184164       17.3201446965
  N         6.7705112949        8.9252254646        6.7705080096
  C         6.5002608397       10.2427780077        6.5002595155
  N         6.7701023068        3.0621323180        5.2158388040
  C         6.5002433949        1.7443318918        5.4856458993
  N         6.7670784858       13.8795492321       16.0320862794
  C         6.4964510872       12.5615836892       16.3010453369
  N        16.0344572987        3.0620461103       17.5897752054
  C        16.3030128279        1.7442463972       17.3186686630
  N        16.0344020033       13.8814559285        6.7703708172
  C        16.3037080829       12.5636690957        6.4998397800
  N        16.0347448875       19.7447194809        5.2165304145
  C        16.3036770070       21.0625372199        5.4866327412
  N        16.0354523781        8.9248539179       16.0359079311
  C        16.3049647925       10.2426356424       16.3055141453
  N        17.5919439319        6.7712339467       19.7446938959
  C        17.3204180594        6.5017625564       21.0622351903
  N        17.5911231602       17.5913120232        8.9252917396
  C        17.3207543187       17.3209451421       10.2427882743
  N         5.2141588691        6.7713658512        3.0618036672
  C         5.4841031542        6.5012051031        1.7441199400
  N         5.2137153860       17.5903451695       13.8814620088
  C         5.4831065789       17.3198458829       12.5637363510
  N        17.5892999720       16.0340077198        3.0617606306
  C        17.3180666305       16.3026549882        1.7439831792
  N        17.5897086043        5.2144116189       13.8814528183
  C        17.3190463819        5.4836351593       12.5637174137
  N         5.2163901263       16.0334483074       19.7444745964
  C         5.4862777083       16.3028681029       21.0622934731
  N         5.2134318702        5.2169943543        8.9259777996
  C         5.4848762646        5.4845487468       10.2438719498
  N        17.5893982531       19.7451093898       16.0346064213
  C        17.3184030927       21.0628164207       16.3032593414
  N        17.5897540613        8.9248035503        5.2146799386
  C        17.3192629648       10.2424287155        5.4840397493
  N         5.2155072638        3.0604739014       16.0371006294
  C         5.4857165840        1.7426924208       16.3056123873
  N         5.2148650837       13.8820451131        5.2157930543
  C         5.4843290102       12.5641333597        5.4851746202
  N        17.5904654527        3.0614339724        6.7720140070
  C        17.3195193048        1.7438239373        6.5021642702
  N        17.5911395787       13.8814022806       17.5917151741
  C        17.3206891878       12.5638237659       17.3213237598
  N         5.2151089426       19.7452760656        6.7712066351
  C         5.4848266444       21.0629610276        6.5011894856
  N         5.2174572056        8.9223745841       17.5924763701
  C         5.4832813769       10.2399014566       17.3185963004
  N        19.7440449890        6.7710380772        5.2155496880
  C        21.0617105899        6.5008331331        5.4850569973
  N         8.9254315861        6.7704947303       16.0370389005
  C        10.2429816968        6.4997543307       16.3056822589
  N         3.0631544884        6.7675771877       17.5933982296
  C         1.7456541711        6.5008143382       17.3196452990
  N        13.8805095137        6.7709564832        6.7715395682
  C        12.5628327697        6.5004784654        6.5013950327
  N         3.0614091041       16.0353249208        5.2164459287
  C         1.7434728539       16.3041964413        5.4865672925
  N        13.8810891097       16.0357029017       16.0363043211
  C        12.5630752288       16.3050347558       16.3057392794
  N        19.7443259333       16.0341422074       17.5898839794
  C        21.0619802091       16.3028473310       17.3187075956
  N         8.9242837537       16.0348745154        6.7702344817
  C        10.2419599446       16.3041213055        6.4996341987
  N         6.7712904133       17.5910828495        3.0610757280
  C         6.5014763097       17.3198480001        1.7434759045
  N         6.7779077134        6.7632313389       13.8828867812
  C         6.5047401202        6.4958399013       12.5653719056
  N         6.7705552820        5.2151949016       19.7457097611
  C         6.5002850947        5.4851632740       21.0632587972
  N         6.7695111211       16.0349803102        8.9248938386
  C         6.4988068331       16.3040894115       10.2425515218
  N        16.0336976885       17.5897079743       19.7450629592
  C        16.3024139036       17.3185079889       21.0627273272
  N        16.0343639046        6.7701098825        8.9248437420
  C        16.3036347096        6.4995766802       10.2425005556
  N        16.0344433702        5.2164115224        3.0614251523
  C        16.3037850262        5.4863158200        1.7434948626
  N        16.0353794015       16.0359657070       13.8820423424
  C        16.3050668330       16.3052621483       12.5640911876
 Zn        14.7450274930       14.7455956402       14.7457594591
 Br        13.4297045389       13.4303758485       13.4306406708
 Zn        14.7447840605        3.9253400071        3.9252546625
 Br        13.4303604883        2.6094624766        2.6098740490
 Zn         3.9247711543       14.7455508810        3.9252426397
 Br         2.6093056804       13.4309483847        2.6096339560
 Zn         3.9262215687        3.9238650805       14.7459630150
 Br         2.6068973443        2.6155530654       13.4280526820
 Zn         8.0646398010        8.0615107774       14.7459147441
 Br         9.3703887132        9.3789815060       13.4253077906
 Zn         8.0635070045       18.8847537802        3.9252292945
 Br         9.3764561967       20.1976688500        2.6072922148
 Zn        18.8836203146        8.0643274320        3.9251763924
 Br        20.1970275078        9.3766202175        2.6070371161
 Zn        18.8838447266       18.8846901338       14.7455753836
 Br        20.1972676995       20.1979923906       13.4285074007
 Zn         8.0633709537       14.7454499549        8.0643509348
 Br         9.3761927623       13.4275604375        9.3774603864
 Zn         8.0637698701        3.9250656394       18.8853409097
 Br         9.3764259800        2.6069627950       20.1984052594
 Zn        18.8839878680       14.7452843881       18.8848387940
 Br        20.1975550793       13.4278612693       20.1976153933
 Zn        18.8839761998        3.9252192849        8.0645829484
 Br        20.1975121874        2.6074883350        9.3770911664
 Zn        14.7448182131        8.0639424402        8.0641750762
 Br        13.4270668274        9.3769534959        9.3772585328
 Zn        14.7448255279       18.8846723088       18.8846757694
 Br        13.4276872931       20.1977663211       20.1982023852
 Zn         3.9255377738        8.0627409950       18.8837890544
 Br         2.6045642621        9.3786517776       20.1907381232
 Zn         3.9248713391       18.8849254107        8.0644714898
 Br         2.6067460044       20.1980886430        9.3769401564
 Zn        14.7450425634       14.7453919211        8.0641228157
 Br        13.4285955136       13.4290099053        9.3760758305
 Zn        14.7453223897        3.9253959779       18.8840431507
 Br        13.4293312990        2.6087500051       20.1961649896
 Zn         3.9246889197       14.7442510695       18.8834608509
 Br         2.6081759485       13.4284801734       20.1959931226
 Zn         3.9243125615        3.9257695610        8.0645285876
 Br         2.6078610332        2.6088717807        9.3758846578
 Zn         8.0622750437        8.0647057605        8.0648292349
 Br         9.3773233510        9.3783240037        9.3789851631
 Zn         8.0634340575       18.8838623670       18.8845619902
 Br         9.3772492212       20.1986017968       20.1988355825
 Zn        18.8854173708        8.0644263914       18.8836388970
 Br        20.1996283847        9.3778938996       20.1986741474
 Zn        18.8840970503       18.8846598037        8.0647634656
 Br        20.1987055122       20.1991113805        9.3784558507
 Zn        14.7449861705        8.0643281580       14.7453026727
 Br        13.4276100627        9.3757993369       13.4293441484
 Zn        14.7448851704       18.8842472999        3.9253534262
 Br        13.4290534063       20.1963283804        2.6085169959
 Zn         3.9241464973        8.0649347924        3.9248682873
 Br         2.6076525195        9.3756821490        2.6073224147
 Zn         3.9244076689       18.8842350630       14.7451726079
 Br         2.6079578244       20.1972877792       13.4298442667
 Zn         8.0623669156       14.7447102067       14.7452694320
 Br         9.3750322131       13.4285167874       13.4292688588
 Zn         8.0626873215        3.9255993500        3.9253397374
 Br         9.3742929538        2.6090166268        2.6087069408
 Zn        18.8837803004       14.7452083505        3.9253722611
 Br        20.1959540375       13.4294310182        2.6085300584
 Zn        18.8844317966        3.9256244171       14.7450539738
 Br        20.1964095203        2.6084703574       13.4294784179
 Zn         5.9967526127        5.9955265891       16.8167160223
 Zn        16.8160655371       16.8168983514       16.8170378150
 Zn        16.8159048959        5.9964885617        5.9965594608
 Zn         5.9960797301       16.8170391327        5.9965886197
 Zn         5.9952041995        5.9972690241        5.9967170899
 Zn        16.8162497128       16.8166903995        5.9967933103
 Zn         5.9955800348       16.8158701103       16.8164456288
 Zn        16.8168820949        5.9969845918       16.8163409399
  N         3.8101583338        5.9862730723       16.8194213545
  N        14.6274597889        5.9934238988        5.9935574096
  N        18.9974961478       16.8127185357       16.8129212258
  N         8.1775004320       16.8131904789        5.9929583475
  N        18.9973036023        5.9933395748        5.9934452001
  N         8.1786955136        5.9928386692       16.8148916188
  N         3.8080621933       16.8137839264        5.9939402280
  N        14.6276231983       16.8139688210       16.8141051769
  N        16.8129789702        3.8084733821        5.9940566477
  N        16.8134601265       14.6285077333       16.8140277285
  N        16.8121600029       18.9983827038       16.8129903845
  N        16.8123710842        8.1779477106        5.9927874109
  N         5.9928076351       18.9985087445        5.9933321182
  N         5.9988235743        8.1755942339       16.8184217721
  N         5.9934297819        3.8071019659       16.8150649300
  N         5.9928793842       14.6286582798        5.9937261466
  N         5.9934309396       16.8136138094        3.8082330592
  N         6.0038168316        5.9820724355       14.6299088934
  N        16.8122592976       16.8127270874       18.9982503771
  N        16.8125996942        5.9928099532        8.1780488316
  N         5.9931274606        5.9930254520       18.9987543260
  N         5.9922488529       16.8132594489        8.1780864969
  N        16.8128269237        5.9938727843        3.8081929260
  N        16.8132936886       16.8140035838       14.6286845059
  N         5.9926941580        3.8089261804        5.9941361345
  N         5.9901697534       14.6262642487       16.8109690354
  N        16.8129816387       18.9980739800        5.9940869529
  N        16.8133189376        8.1781742870       16.8138100927
  N         5.9932116393       18.9970626363       16.8131832561
  N         5.9926677831        8.1784043042        5.9929070215
  N        16.8134721138        3.8088264407       16.8130645368
  N        16.8127406876       14.6282952714        5.9930447045
  N         3.8078307901       16.8125958388       16.8127163910
  N        14.6279068836       16.8130534518        5.9929715479
  N        18.9976661552       16.8133118659        5.9941566075
  N         8.1771153672       16.8124067039       16.8142282908
  N        18.9995030735        5.9957714773       16.8112317933
  N         8.1769461584        5.9934172109        5.9943905237
  N         3.8076064211        5.9933744037        5.9926285144
  N        14.6287321034        5.9929039684       16.8127855796
  N        16.8141905531        5.9936564591       18.9976916251
  N        16.8134231091       16.8137176013        8.1783018276
  N        16.8122594127       16.8126203877        3.8086284245
  N        16.8125113859        5.9928435052       14.6283330952
  N         5.9920244921        5.9937351794        3.8088476051
  N         5.9921009611       16.8131175947       14.6283596763
  N         5.9936039686       16.8119841403       18.9977620344
  N         5.9905845208        5.9956300789        8.1793389678
  C        11.4024509568       15.7546201483       15.7561088144
  H        11.4022871592       14.9788882767       14.9806693902
  C        11.4019137867        4.9352986101        4.9355044774
  H        11.4014090759        4.1599589693        4.1596420255
  C         0.5827659092       15.7538670140        4.9370894147
  H         0.5824329715       14.9783333999        4.1614297561
  C         0.5845316854        4.9373822817       15.7523836485
  H         0.5839283705        4.1608163489       14.9777739641
  C        11.4031166691        7.0498808978       15.7554284540
  H        11.4023924853        7.8257848191       14.9802765562
  C        11.4025724198       17.8694641408        4.9341108322
  H        11.4022115654       18.6451805443        4.1587847775
  C         0.5821699454        7.0508577106        4.9353014871
  H         0.5816176713        7.8265794433        4.1599786048
  C         0.5825160571       17.8679354416       15.7528738042
  H         0.5821261432       18.6436304590       14.9775280137
  C        11.4025319200       15.7540814317        7.0491960958
  H        11.4021570861       14.9787704150        7.8249184300
  C        11.4038351672        4.9336629261       17.8698842807
  H        11.4036662546        4.1581032036       18.6453312301
  C         0.5825514085       15.7527088693       17.8681501166
  H         0.5822155343       14.9774880942       18.6439704005
  C         0.5824705519        4.9352500041        7.0501997397
  H         0.5822528664        4.1598673381        7.8258578541
  C        11.4021923338        7.0498866364        7.0512822899
  H        11.4019777940        7.8250857482        7.8269606480
  C        11.4019842209       17.8704524710       17.8706465728
  H        11.4013949366       18.6461081598       18.6458997586
  C         0.5850073171        7.0521647918       17.8677671607
  H         0.5849756560        7.8266175454       18.6442111677
  C         0.5826883377       17.8693213435        7.0520559214
  H         0.5823002858       18.6447749614        7.8274929622
  C        15.7550737665       11.4032498709       15.7555777880
  H        14.9795424396       11.4029299841       14.9799242037
  C        15.7535961727        0.5831343044        4.9368344574
  H        14.9779854150        0.5827508595        4.1612598941
  C         4.9343870860       11.4035553524        4.9350895900
  H         4.1586414263       11.4033483951        4.1596401834
  C         4.9355663373        0.5824049559       15.7552173815
  H         4.1597829070        0.5824063804       14.9797921643
  C        15.7537677391       11.4029948573        7.0493937725
  H        14.9784553046       11.4026242997        7.8251057652
  C        15.7525414534        0.5836746129       17.8679780953
  H        14.9770672467        0.5834989001       18.6435468227
  C         4.9319731230       11.4004862325       17.8671386680
  H         4.1575470930       11.3998505623       18.6437577464
  C         4.9353077543        0.5834325245        7.0514608923
  H         4.1600930341        0.5829228758        7.8272720745
  C         7.0466090526       11.4009011473       15.7516138842
  H         7.8232429236       11.4007107544       14.9772251321
  C         7.0498749189        0.5837318688        4.9355640581
  H         7.8253483603        0.5834996333        4.1599946194
  C        17.8691408668       11.4029547704        4.9342535377
  H        18.6448824477       11.4025429761        4.1589486511
  C        17.8683610637        0.5832662308       15.7533461720
  H        18.6442836144        0.5827014614       14.9782391863
  C         7.0498774534       11.4032098973        7.0501360434
  H         7.8254058159       11.4026664962        7.8254908761
  C         7.0515707464        0.5816766889       17.8698302730
  H         7.8271430207        0.5810427155       18.6451235627
  C        17.8702196347       11.4031251697       17.8709122029
  H        18.6456345078       11.4026984418       18.6463948725
  C        17.8689346338        0.5831461986        7.0519220934
  H        18.6444822185        0.5827788687        7.8272696785
  C        15.7551891894       15.7553642518       11.4033744024
  H        14.9796314181       14.9797452781       11.4029994398
  C        15.7537160378        4.9369738344        0.5826031372
  H        14.9779181781        4.1615754436        0.5820356404
  C         4.9365844932       15.7531183363        0.5830871888
  H         4.1612238246       14.9773037089        0.5829317412
  C         4.9371513197        4.9324336285       11.4044843502
  H         4.1625794196        4.1558255640       11.4040533167
  C         7.0485779751       15.7542592881       11.4030995639
  H         7.8242410078       14.9788875899       11.4027617111
  C         7.0498494358        4.9355093861        0.5838613093
  H         7.8254405277        4.1600867558        0.5835379879
  C        17.8675976537       15.7527422050        0.5832791115
  H        18.6433460455       14.9774485013        0.5828944688
  C        17.8688823190        4.9339138815       11.4030854672
  H        18.6445760831        4.1585623382       11.4027630601
  C        15.7536250575        7.0492059423       11.4030249979
  H        14.9783776151        7.8249899299       11.4025593747
  C        15.7523009278       17.8679282952        0.5833109825
  H        14.9770625785       18.6437219401        0.5829415257
  C         4.9346626218        7.0509579873        0.5833076288
  H         4.1593255604        7.8266701987        0.5827538761
  C         4.9331612775       17.8694032230       11.4030789905
  H         4.1578548358       18.6451363790       11.4026588100
  C         7.0521541707        7.0476471920       11.4046125406
  H         7.8284191983        7.8222709287       11.4043249532
  C         7.0510007693       17.8690938129        0.5826172540
  H         7.8260702281       18.6449258079        0.5820200604
  C        17.8698584930        7.0511966442        0.5829878008
  H        18.6455485937        7.8263899775        0.5828383430
  C        17.8704857263       17.8705255177       11.4033301932
  H        18.6459098470       18.6460006289       11.4029459928
 Kr         3.4827113567        8.4973671095       14.2818099724
