     409
 i =     150, E =    -5183.7512384417
  N         3.0217378154        5.2049834884       16.0232645193
  C         1.7034987973        5.4753633979       16.2915457378
  N        13.8373179731        5.2014161363        5.2014141597
  C        12.5196815937        5.4723309553        5.4723311573
  N        19.7058455952       17.5756017920       16.0191147456
  C        21.0238132054       17.3056333524       16.2895070001
  N         8.8835413652       17.5799848568        5.2057039382
  C        10.2014393502       17.3080830206        5.4739622986
  N        19.7001765408        5.2018145891        6.7582916511
  C        21.0180708486        5.4745072670        6.4906093881
  N         8.8835443057        5.2057027455       17.5799890516
  C        10.2014409482        5.4739639108       17.3080861164
  N         3.0198162303       17.5792269038        6.7618983475
  C         1.7021907089       17.3074895950        6.4916308572
  N        13.8443587635       17.5760957956       17.5760959029
  C        12.5263103502       17.3066330069       17.3066317919
  N        15.9905572777        3.0459971800        5.2008517743
  C        16.2592828618        1.7283573545        5.4718289086
  N        15.9973608604       13.8658205708       16.0180400471
  C        16.2666439959       12.5483041143       16.2880184471
  N        15.9972551039       19.7303240735       17.5755789372
  C        16.2652549172       21.0479498766       17.3042092339
  N        15.9929483991        8.9109586413        6.7577614692
  C        16.2625714322       10.2283803173        6.4875731827
  N         6.7294362114       19.7360315523        5.2069442249
  C         6.4597764814       21.0535781011        5.4774003477
  N         6.7301791908        8.9156173721       16.0234632916
  C         6.4610762630       10.2331744623       16.2935929856
  N         6.7309450120        3.0518024106       17.5808268282
  C         6.4641719140        1.7339735142       17.3089571579
  N         6.7275961801       13.8706027809        6.7633983022
  C         6.4575345984       12.5531691849        6.4937865935
  N         5.1783160922       16.0227421142        3.0510563852
  C         5.4498797569       16.2914101118        1.7335270535
  N         5.1744421561        5.2060183900       13.8710554314
  C         5.4429094132        5.4766160254       12.5534385875
  N        17.5499274441       16.0173096985       19.7305170990
  C        17.2794681172       16.2865406516       21.0481373358
  N        17.5458281899        5.1997976764        8.9105800263
  C        17.2769809021        5.4701103254       10.2281313098
  N         5.1754536490        6.7641763038       19.7356274998
  C         5.4449258934        6.4944886410       21.0532944562
  N         5.1761499575       17.5806886272        8.9160570231
  C         5.4461785494       17.3106538098       10.2334513228
  N        17.5441607015        6.7582486969        3.0461619037
  C        17.2739616241        6.4890471090        1.7285540937
  N        17.5510930799       17.5752514625       13.8655669430
  C        17.2814103411       17.3051384998       12.5480981892
  N         5.1732515324        3.0513311889        6.7636033285
  C         5.4436468869        1.7337019228        6.4942574448
  N         5.1782318205       13.8710175377       17.5811796532
  C         5.4471606381       12.5534449728       17.3109151876
  N        17.5458495417       19.7308080290        6.7581308195
  C        17.2748758692       21.0482849815        6.4889830542
  N        17.5484916548        8.9105329831       17.5763890357
  C        17.2800961215       10.2280932963       17.3056650641
  N         5.1805045084       19.7354726822       16.0226311695
  C         5.4511365322       21.0531124329       16.2913829798
  N         5.1724237797        8.9159389045        5.2066673154
  C         5.4419273946       10.2333951314        5.4769770965
  N        17.5483257163        3.0462932792       16.0170870229
  C        17.2786062835        1.7285601428       16.2864198844
  N        17.5485353197       13.8655797983        5.2010043474
  C        17.2783550688       12.5481176268        5.4706611552
  N         3.0235639116       16.0237560128       17.5801868866
  C         1.7056457470       16.2916942442       17.3077902214
  N        13.8409429766       16.0189472084        6.7570287651
  C        12.5230898718       16.2897457772        6.4875773260
  N        19.7039494943       16.0192448916        5.2019382273
  C        21.0216376883       16.2894964838        5.4736643690
  N         8.8853411373       16.0229378563       16.0229395706
  C        10.2035382253       16.2922424691       16.2922424066
  N        19.7022123763        6.7579076335       17.5762506968
  C        21.0204122671        6.4895557668       17.3058413879
  N         8.8817090963        6.7610692273        6.7610694350
  C        10.1992648290        6.4901335763        6.4901345172
  N         3.0177323707        6.7633977221        5.2070214505
  C         1.6998082223        6.4931320569        5.4770257943
  N        13.8409455612        6.7570299028       16.0189482187
  C        12.5230909808        6.4875800183       16.2897468822
  N        15.9929407094        5.2001354572       19.7301681005
  C        16.2604702444        5.4715157162       21.0479253627
  N        15.9953785516       16.0186524555        8.9109233841
  C        16.2655549229       16.2883353864       10.2283439687
  N        15.9951143299       17.5748563609        3.0457846108
  C        16.2641836017       17.3038904676        1.7282597176
  N        15.9950151415        6.7583933137       13.8658487059
  C        16.2637134030        6.4878993230       12.5483341635
  N         6.7263827134        5.2060288227        3.0517020499
  C         6.4582397965        5.4770115880        1.7339901151
  N         6.7313172738       16.0236938226       13.8708021500
  C         6.4617122883       16.2936570862       12.5532746198
  N         6.7342324913       17.5803025489       19.7359038005
  C         6.4657779254       17.3087236457       21.0534832258
  N         6.7265050856        6.7637544353        8.9158247905
  C         6.4569096111        6.4939455128       10.2332736853
  N        19.7022222868       17.5762501621        6.7579077267
  C        21.0204209603       17.3058396987        6.4895546217
  N         8.8872694956       17.5793200552       17.5793183715
  C        10.2048265599       17.3083482026       17.3083461600
  N         3.0177327340        5.2070219599        6.7633957504
  C         1.6998081080        5.4770259017        6.4931311127
  N        13.8408896773        5.2003586827       17.5751733045
  C        12.5230435135        5.4714855633       17.3058502406
  N         3.0235643621       17.5801857870       16.0237594183
  C         1.7056459556       17.3077892753       16.2916967661
  N        13.8408860253       17.5751719080        5.2003579802
  C        12.5230416911       17.3058462325        5.4714860786
  N        19.7039390795        5.2019382458       16.0192450051
  C        21.0216284319        5.4736624625       16.2894949461
  N         8.8798650045        5.2047016963        5.2046985540
  C        10.1980260290        5.4740457282        5.4740447944
  N         6.7342331795       19.7359025765       17.5803041536
  C         6.4657926205       21.0534839735       17.3087133942
  N         6.7265073576        8.9158234149        6.7637504747
  C         6.4568900250       10.2332702333        6.4939619700
  N         6.7263819331        3.0517015518        5.2060290807
  C         6.4582214843        1.7339919354        5.4769973036
  N         6.7313171859       13.8708005086       16.0236931954
  C         6.4617298517       12.5532707662       16.2936717246
  N        15.9951101579        3.0457882404       17.5748548232
  C        16.2641816314        1.7282636745       17.3038910035
  N        15.9950178538       13.8658453270        6.7583920957
  C        16.2637116492       12.5483305125        6.4878941171
  N        15.9929406833       19.7301705850        5.2001377875
  C        16.2604666665       21.0479282507        5.4715215729
  N        15.9953768347        8.9109204833       16.0186526648
  C        16.2655564828       10.2283406619       16.2883325173
  N        17.5458485764        6.7581301610       19.7308050677
  C        17.2748791662        6.4889788196       21.0482815705
  N        17.5484933119       17.5763882452        8.9105365110
  C        17.2800940523       17.3056672162       10.2280972946
  N         5.1732507108        6.7636009999        3.0513318836
  C         5.4436607744        6.4942739294        1.7337002079
  N         5.1782334971       17.5811818400       13.8710185078
  C         5.4471473556       17.3108985452       12.5534483949
  N        17.5483281671       16.0170876410        3.0462891040
  C        17.2786065058       16.2864192084        1.7285556099
  N        17.5485334911        5.2010057150       13.8655837220
  C        17.2783578346        5.4706661854       12.5481221319
  N         5.1805047474       16.0226277346       19.7354752010
  C         5.4511253670       16.2913956428       21.0531124633
  N         5.1724186803        5.2066748414        8.9159379780
  C         5.4419417031        5.4769590757       10.2333975578
  N        17.5499258959       19.7305225331       16.0173094919
  C        17.2794679882       21.0481425125       16.2865416549
  N        17.5458278701        8.9105740262        5.1997960656
  C        17.2769776218       10.2281264658        5.4701044780
  N         5.1783104278        3.0510559771       16.0227475835
  C         5.4498902438        1.7335276640       16.2914017785
  N         5.1744525582       13.8710536838        5.2060118785
  C         5.4428956916       12.5534359605        5.4766308987
  N        17.5441604320        3.0461675634        6.7582495832
  C        17.2739582554        1.7285588920        6.4890523536
  N        17.5510917098       13.8655604746       17.5752533763
  C        17.2814117286       12.5480932581       17.3051355668
  N         5.1754587100       19.7356286930        6.7641827985
  C         5.4449116287       21.0532963377        6.4944768084
  N         5.1761413355        8.9160546180       17.5806823258
  C         5.4461909260       10.2334475998       17.3106656022
  N        19.7001766721        6.7582910200        5.2018133176
  C        21.0180709326        6.4906092681        5.4745068404
  N         8.8836464683        6.7611079437       16.0226651379
  C        10.2015001903        6.4895931839       16.2915230474
  N         3.0198043762        6.7618973875       17.5792240182
  C         1.7021802412        6.4916291407       17.3074860006
  N        13.8388895513        6.7578544130        6.7578541888
  C        12.5207961385        6.4884296498        6.4884309845
  N         3.0217497100       16.0232657811        5.2049846668
  C         1.7035093896       16.2915463356        5.4753629392
  N        13.8427547594       16.0196538288       16.0196551056
  C        12.5251631665       16.2905445806       16.2905443581
  N        19.7058460325       16.0191117429       17.5756000578
  C        21.0238133843       16.2895052568       17.3056325303
  N         8.8836448821       16.0226598601        6.7611084054
  C        10.2014995381       16.2915166872        6.4895938432
  N         6.7309511909       17.5808221196        3.0518030462
  C         6.4641634734       17.3089675729        1.7339735452
  N         6.7275872409        6.7634016796       13.8706059801
  C         6.4575480539        6.4937685439       12.5531723058
  N         6.7294322649        5.2069386786       19.7360311009
  C         6.4597902152        5.4774142687       21.0535773503
  N         6.7301855281       16.0234664640        8.9156207833
  C         6.4610641750       16.2935777199       10.2331781200
  N        15.9972576238       17.5755815080       19.7303181207
  C        16.2652552738       17.3042101471       21.0479445455
  N        15.9929476281        6.7577615966        8.9109646101
  C        16.2625753602        6.4875768918       10.2283853359
  N        15.9905585044        5.2008502446        3.0459923082
  C        16.2592878097        5.4718237414        1.7283532186
  N        15.9973632193       16.0180377034       13.8658261153
  C        16.2666416720       16.2880198267       12.5483085674
 Zn        14.7064914455       14.7252366988       14.7252385627
 Cl        13.4728252565       13.4935068330       13.4935073964
 Zn        14.7016944684        3.9067216355        3.9067190603
 Cl        13.4656516170        2.6761005393        2.6760973390
 Zn         3.8871430756       14.7302012527        3.9100655512
 Cl         2.6536568819       13.4975353595        2.6789408147
 Zn         3.8871337517        3.9100598850       14.7301977321
 Cl         2.6536499675        2.6789319965       13.4975273575
 Zn         8.0189633257        8.0549581072       14.7287294121
 Cl         9.2526077931        9.2865000334       13.4965705837
 Zn         8.0185935669       18.8748463906        3.9129017127
 Cl         9.2533666169       20.1071505783        2.6824804471
 Zn        18.8353220157        8.0506780619        3.9059328537
 Cl        20.0685966887        9.2832073432        2.6745234651
 Zn        18.8402839336       18.8697771786       14.7250249961
 Cl        20.0741840534       20.0998315985       13.4916388062
 Zn         8.0189590389       14.7287341418        8.0549571601
 Cl         9.2525975715       13.4965707125        9.2864949417
 Zn         8.0185998509        3.9128876112       18.8748512484
 Cl         9.2533808099        2.6824743784       20.1071608961
 Zn        18.8402853552       14.7250208690       18.8697732760
 Cl        20.0741837627       13.4916357669       20.0998298567
 Zn        18.8353212624        3.9059373630        8.0506818033
 Cl        20.0685987625        2.6745275875        9.2832079640
 Zn        14.7036190965        8.0517893553        8.0517923126
 Cl        13.4704071057        9.2838477765        9.2838478030
 Zn        14.7084930601       18.8702908640       18.8702861997
 Cl        13.4747395007       20.1020082331       20.1020060913
 Zn         3.8847955664        8.0554382936       18.8732278657
 Cl         2.6519707529        9.2898612367       20.1033514980
 Zn         3.8848060073       18.8732277016        8.0554394612
 Cl         2.6519732908       20.1033450053        9.2898566056
 Zn        14.7051198767       14.7252627665        8.0517548125
 Cl        13.4715865186       13.4939577686        9.2841439713
 Zn        14.7054076150        3.9053548233       18.8689722062
 Cl        13.4707003630        2.6731612704       20.0993366069
 Zn         3.8885376192       14.7304643255       18.8744456999
 Cl         2.6559794191       13.4979542687       20.1066403854
 Zn         3.8833176728        3.9120369065        8.0555146891
 Cl         2.6499641233        2.6822023704        9.2897630168
 Zn         8.0180013426        8.0549976684        8.0549954699
 Cl         9.2521847781        9.2865573045        9.2865542669
 Zn         8.0236162723       18.8736630175       18.8736659261
 Cl         9.2596618779       20.1043121682       20.1043158215
 Zn        18.8367414417        8.0506900726       18.8712146659
 Cl        20.0703081360        9.2829955371       20.1026662482
 Zn        18.8367477204       18.8712157807        8.0506916260
 Cl        20.0703155202       20.1026692765        9.2829976363
 Zn        14.7051211662        8.0517544928       14.7252651366
 Cl        13.4715923199        9.2841437965       13.4939589615
 Zn        14.7054052075       18.8689736703        3.9053525245
 Cl        13.4706931901       20.0993382405        2.6731600624
 Zn         3.8833176819        8.0555163300        3.9120337736
 Cl         2.6499611901        9.2897706688        2.6822078749
 Zn         3.8885380933       18.8744434635       14.7304672743
 Cl         2.6559830264       20.1066322506       13.4979485193
 Zn         8.0200205217       14.7289203646       14.7289177404
 Cl         9.2536996223       13.4970845358       13.4970793490
 Zn         8.0146203632        3.9108870553        3.9108910234
 Cl         9.2480401668        2.6789477845        2.6789536045
 Zn        18.8387950051       14.7250355900        3.9074011226
 Cl        20.0724386829       13.4912696407        2.6775475261
 Zn        18.8387870390        3.9074047788       14.7250375560
 Cl        20.0724288006        2.6775524352       13.4912729043
 Zn         5.9518787714        5.9881191827       16.8063425001
 Zn        16.7733984908       16.7969182655       16.7969311531
 Zn        16.7695254835        5.9789808132        5.9789782061
 Zn         5.9518870129       16.8063350123        5.9881190757
 Zn         5.9498613443        5.9881335704        5.9881316504
 Zn        16.7715230054       16.7970082486        5.9790056145
 Zn         5.9540359051       16.8066444347       16.8066489906
 Zn        16.7715201045        5.9790006277       16.7970080881
  N         3.7670353575        5.9833712020       16.8021799455
  N        14.5843447886        5.9792721378        5.9792700536
  N        18.9595901355       16.7972899854       16.7972907507
  N         8.1372913778       16.8022168448        5.9843176555
  N        18.9539396571        5.9786919717        5.9786915589
  N         8.1373011757        5.9843163877       16.8022215854
  N         3.7670549096       16.8021815943        5.9833728723
  N        14.5898104270       16.7975342682       16.7975359328
  N        16.7678395546        3.7927484996        5.9790299982
  N        16.7742685139       14.6122974948       16.7967332613
  N        16.7742454294       18.9837210277       16.7970469876
  N        16.7692075788        8.1641077651        5.9787430242
  N         5.9525157238       18.9893341034        5.9854578582
  N         5.9529636639        8.1693977239       16.8021286360
  N         5.9533099462        3.7982564507       16.8027661159
  N         5.9515273109       14.6176430528        5.9843990597
  N         5.9533220970       16.8027552344        3.7982630276
  N         5.9515076333        5.9844130817       14.6176395281
  N        16.7742483902       16.7970491093       18.9837139313
  N        16.7692049380        5.9787413706        8.1641158795
  N         5.9525035804        5.9854441164       18.9893399429
  N         5.9529783915       16.8021399892        8.1693941626
  N        16.7678382417        5.9790311926        3.7927413472
  N        16.7742727091       16.7967283706       14.6123060733
  N         5.9493179707        3.7983668332        5.9844533994
  N         5.9549793073       14.6177372074       16.8025963787
  N        16.7703731088       18.9837881252        5.9784711218
  N        16.7714557301        8.1640718063       16.7978444971
  N         5.9566465840       18.9892199022       16.8023477291
  N         5.9496021305        8.1694064861        5.9850168688
  N        16.7719198222        3.7927095566       16.7964272703
  N        16.7721252437       14.6123232626        5.9799105839
  N         3.7698415848       16.8032536789       16.8032561091
  N        14.5871575023       16.7967057079        5.9782866984
  N        18.9568420094       16.7978693717        5.9790438215
  N         8.1400093367       16.8015815086       16.8015824005
  N        18.9568243827        5.9790437098       16.7978698178
  N         8.1344697641        5.9832935284        5.9832917042
  N         3.7640503240        5.9852460545        5.9852444284
  N        14.5871684061        5.9782874618       16.7967061758
  N        16.7703700626        5.9784720113       18.9837823048
  N        16.7714600672       16.7978416254        8.1640785033
  N        16.7719245700       16.7964296296        3.7927025548
  N        16.7721199318        5.9799089348       14.6123304508
  N         5.9493083339        5.9844422388        3.7983723844
  N         5.9549890512       16.8026071960       14.6177334972
  N         5.9566538479       16.8023371134       18.9892270407
  N         5.9495872834        5.9850352589        8.1694013421
  C        11.3635641952       15.7412012421       15.7412014535
  H        11.3623605561       14.9656502074       14.9656511068
  C        11.3580598975        4.9230068429        4.9230055086
  H        11.3568257898        4.1474678066        4.1474637689
  C         0.5434349642       15.7400211311        4.9247691370
  H         0.5449005705       14.9641830108        4.1495200971
  C         0.5434188047        4.9247689279       15.7400197756
  H         0.5448875697        4.1495207578       14.9641803026
  C        11.3623482255        7.0385490090       15.7402312073
  H        11.3624554416        7.8140068132       14.9645904580
  C        11.3621770976       17.8571644031        4.9225774129
  H        11.3621075875       18.6329461836        4.1472719826
  C         0.5389605947        7.0424738509        4.9260724699
  H         0.5389761706        7.8183023691        4.1508199860
  C         0.5447406604       17.8564853773       15.7401423572
  H         0.5448265800       18.6319230217       14.9644894179
  C        11.3623407790       15.7402268183        7.0385482767
  H        11.3624498542       14.9645863374        7.8140061064
  C        11.3621865763        4.9225784127       17.8571673301
  H        11.3621170399        4.1472724517       18.6329490369
  C         0.5447399426       15.7401394059       17.8564844794
  H         0.5448242647       14.9644856110       18.6319213056
  C         0.5389608078        4.9260724587        7.0424731971
  H         0.5389756514        4.1508192911        7.8183013802
  C        11.3607953480        7.0394687235        7.0394702407
  H        11.3619991499        7.8150173323        7.8150174417
  C        11.3663447335       17.8576705187       17.8576677996
  H        11.3676381583       18.6332168816       18.6332134174
  C         0.5404501615        7.0410337318       17.8564621642
  H         0.5390654673        7.8167698254       18.6318154663
  C         0.5404654516       17.8564637648        7.0410338209
  H         0.5390754170       18.6318175406        7.8167686494
  C        15.7162216915       11.3884951238       15.7367791008
  H        14.9415076259       11.3887820146       14.9603399163
  C        15.7096422632        0.5679484392        4.9208177082
  H        14.9348270307        0.5676171397        4.1444916601
  C         4.8921852143       11.3935671246        4.9257619340
  H         4.1172995492       11.3937448556        4.1495208056
  C         4.9012069885        0.5730577408       15.7396829189
  H         4.1265276429        0.5725482178       14.9632271632
  C        15.7131620155       11.3885366126        7.0390556722
  H        14.9385355465       11.3888488437        7.8155871871
  C        15.7146942239        0.5679391665       17.8550842085
  H        14.9400346647        0.5676720165       18.6315689767
  C         4.8966681676       11.3936358457       17.8619868972
  H         4.1218483117       11.3938519532       18.6382904239
  C         4.8945473798        0.5732953666        7.0457202397
  H         4.1198705252        0.5728653910        7.8221656439
  C         7.0114157935       11.3931100739       15.7423707541
  H         7.7861900883       11.3928915862       14.9659756559
  C         7.0091219284        0.5740786835        4.9262526473
  H         7.7840051790        0.5745334065        4.1499971368
  C        17.8275761647       11.3879285918        4.9190383195
  H        18.6023432893       11.3876510041        4.1426723222
  C        17.8284411794        0.5685283566       15.7348000458
  H        18.6028306294        0.5688369155       14.9580497329
  C         7.0071775536       11.3931140453        7.0452245957
  H         7.7821042557       11.3929271348        7.8214509235
  C         7.0152281802        0.5740669832       17.8596432165
  H         7.7898296361        0.5746188413       18.6361796079
  C        17.8308769457       11.3879080814       17.8565413127
  H        18.6057229271       11.3876317182       18.6328371143
  C        17.8238927297        0.5686240716        7.0406187352
  H        18.5985106724        0.5689611174        7.8171388022
  C        15.7162198605       15.7367821430       11.3885012657
  H        14.9415077076       14.9603407086       11.3887869316
  C        15.7096470249        4.9208108664        0.5679428547
  H        14.9348304667        4.1444862131        0.5676118630
  C         4.9011958489       15.7396927414        0.5730629573
  H         4.1265277882       14.9632261194        0.5725487310
  C         4.8921970986        4.9257501590       11.3935636500
  H         4.1172862675        4.1495325366       11.3937461057
  C         7.0114030837       15.7423551772       11.3931094046
  H         7.7861928105       14.9659771205       11.3928936449
  C         7.0091365415        4.9262695203        0.5740821347
  H         7.7840089071        4.1500005949        0.5745355198
  C        17.8284406004       15.7347992274        0.5685209667
  H        18.6028314764       14.9580502576        0.5688276093
  C        17.8275814356        4.9190434510       11.3879360878
  H        18.6023466545        4.1426767408       11.3876592189
  C        15.7131649628        7.0390606211       11.3885433738
  H        14.9385362323        7.8155897768       11.3888546154
  C        15.7146960379       17.8550851543        0.5679323439
  H        14.9400392293       18.6315723038        0.5676656251
  C         4.8945618454        7.0457332626        0.5732990057
  H         4.1198706056        7.8221655017        0.5728650752
  C         4.8966567205       17.8619753536       11.3936337147
  H         4.1218547837       18.6382960655       11.3938547530
  C         7.0071907741        7.0452075200       11.3931131446
  H         7.7820959559        7.8214572098       11.3929288957
  C         7.0152179850       17.8596545309        0.5740712011
  H         7.7898300118       18.6361787108        0.5746209091
  C        17.8238962306        7.0406145876        0.5686180242
  H        18.5985110967        7.8171376897        0.5689553552
  C        17.8308737927       17.8565433371       11.3879147576
  H        18.6057221458       18.6328375943       11.3876369730
 Xe         1.5419473955       10.6603268919       10.6603265133
