     409
 i =     150, E =    -5183.7581400239
  N         2.7664139571        5.1992157399       16.0163609447
  C         1.4488684599        5.4699918991       16.2865967498
  N        13.5837111212        5.1940584584        5.1940538017
  C        12.2664464394        5.4646870026        5.4646851968
  N        19.4497980983       17.5750805876       16.0190866722
  C        20.7675667306       17.3040927028       16.2880847876
  N         8.6310616700       17.5729311386        5.2002818534
  C         9.9486170682       17.3036866512        5.4717199796
  N        19.4446507537        5.2015141680        6.7577048984
  C        20.7626476481        5.4715224077        6.4876055511
  N         8.6310633722        5.2002817016       17.5729307316
  C         9.9486190873        5.4717239625       17.3036897051
  N         2.7673516351       17.5726628132        6.7554709678
  C         1.4495186333       17.3027104691        6.4860031575
  N        13.5876420614       17.5713575377       17.5713486811
  C        12.2697791690       17.3017632387       17.3017730231
  N        15.7391696002        3.0443742216        5.1992504516
  C        16.0088310175        1.7270116650        5.4705826453
  N        15.7443861294       13.8649702826       16.0159478697
  C        16.0164990710       12.5476473442       16.2836277223
  N        15.7389893427       19.7295400046       17.5736132428
  C        16.0084962308       21.0473028150       17.3031243435
  N        15.7318678516        8.9127456828        6.7624744895
  C        16.0043041848       10.2294284346        6.4919239648
  N         6.4785047979       19.7269673695        5.2007574694
  C         6.2095347238       21.0447040589        5.4717691079
  N         6.4770836628        8.9091976236       16.0163133918
  C         6.2080602747       10.2267296237       16.2874543814
  N         6.4795456834        3.0450495833       17.5728498498
  C         6.2105534914        1.7272544148       17.3021335755
  N         6.4785983058       13.8624238793        6.7552547428
  C         6.2088425147       12.5448897008        6.4843916228
  N         4.9234363604       16.0169379937        3.0446134764
  C         5.1944542250       16.2861940382        1.7270546812
  N         4.9227170377        5.1990598683       13.8630797307
  C         5.1928395357        5.4683351107       12.5454146858
  N        17.2941954816       16.0171053142       19.7293643606
  C        17.0240609691       16.2866829097       21.0471625192
  N        17.2889917382        5.2083048077        8.9090191649
  C        17.0220385895        5.4778083069       10.2271655739
  N         4.9228876262        6.7568287879       19.7270135605
  C         5.1936957814        6.4879165847       21.0447015316
  N         4.9219255511       17.5728006635        8.9088781871
  C         5.1924320265       17.3037988885       10.2265125009
  N        17.2901577224        6.7596583425        3.0456532036
  C        17.0219502559        6.4893881339        1.7276396682
  N        17.2982098203       17.5737379411       13.8652423418
  C        17.0308520460       17.3012796039       12.5476779450
  N         4.9202024285        3.0431134117        6.7551368466
  C         5.1923225023        1.7254715823        6.4871718841
  N         4.9219771069       13.8645231170       17.5744771103
  C         5.1924061968       12.5470029191       17.3046698758
  N        17.2937163099       19.7290031106        6.7588516432
  C        17.0233988221       21.0467044346        6.4889244415
  N        17.2988867860        8.9097023424       17.5723295550
  C        17.0312677035       10.2273649612       17.3005246019
  N         4.9229077361       19.7287110788       16.0178235525
  C         5.1941970465       21.0463259700       16.2866016545
  N         4.9206370579        8.9074863650        5.1980225573
  C         5.1917832166       10.2248938078        5.4677104491
  N        17.2943016330        3.0459920339       16.0160599446
  C        17.0242286335        1.7282160278       16.2860712103
  N        17.2974914765       13.8643891507        5.2031538166
  C        17.0263544818       12.5473092012        5.4747371219
  N         2.7663758339       16.0177476401       17.5740576160
  C         1.4486676961       16.2874369847       17.3035203105
  N        13.5860047751       16.0186845823        6.7616911282
  C        12.2686982595       16.2887172761        6.4905306164
  N        19.4498134165       16.0191923315        5.2001912468
  C        20.7677634029       16.2880671887        5.4704596560
  N         8.6302641672       16.0177093000       16.0176979423
  C         9.9480916306       16.2870358101       16.2870380196
  N        19.4507426942        6.7557574257       17.5756250174
  C        20.7683901588        6.4862604683       17.3043015593
  N         8.6292717019        6.7525785810        6.7525821018
  C         9.9467119521        6.4817731880        6.4817748874
  N         2.7623875137        6.7550342367        5.1986258247
  C         1.4444782182        6.4862975478        5.4702093950
  N        13.5860070935        6.7616862263       16.0186773339
  C        12.2686992848        6.4905356414       16.2887170072
  N        15.7406262160        5.2001902250       19.7286029869
  C        16.0094747769        5.4708453373       21.0463405569
  N        15.7451494451       16.0144690048        8.9104512343
  C        16.0169699335       16.2828291076       10.2276918185
  N        15.7392745919       17.5728270561        3.0460069161
  C        16.0087403887       17.3025903589        1.7282694497
  N        15.7383224269        6.7555042237       13.8671056866
  C        16.0079432567        6.4882636223       12.5494066824
  N         6.4755579847        5.1985342032        3.0431485712
  C         6.2080296113        5.4708454657        1.7255209060
  N         6.4773761394       16.0180392129       13.8648255336
  C         6.2080942678       16.2883611298       12.5472378945
  N         6.4790392328       17.5735663904       19.7284211721
  C         6.2103287173       17.3024881803       21.0462291776
  N         6.4770644847        6.7532651571        8.9062616412
  C         6.2080253379        6.4834490605       10.2241281721
  N        19.4507428658       17.5756287141        6.7557552126
  C        20.7683909700       17.3043019345        6.4862617812
  N         8.6314017160       17.5735469957       17.5735361178
  C         9.9489290694       17.3030181556       17.3030207318
  N         2.7623864384        5.1986256417        6.7550333380
  C         1.4444781287        5.4702102011        6.4862955602
  N        13.5872515834        5.2038411152       17.5734318645
  C        12.2694235472        5.4736107474       17.3039229305
  N         2.7663750543       17.5740592340       16.0177468906
  C         1.4486686607       17.3035209442       16.2874369116
  N        13.5872511421       17.5734399972        5.2038442594
  C        12.2694235239       17.3039229417        5.4736059569
  N        19.4498143627        5.2001933247       16.0191893795
  C        20.7677631414        5.4704589095       16.2880675180
  N         8.6276318092        5.1967291311        5.1967342524
  C         9.9456355080        5.4658432048        5.4658455930
  N         6.4790434807       19.7284226073       17.5735601798
  C         6.2103281890       21.0462312942       17.3024883105
  N         6.4770625443        8.9062610231        6.7532676525
  C         6.2080251984       10.2241270312        6.4834492741
  N         6.4755572659        3.0431455245        5.1985371816
  C         6.2080269197        1.7255180537        5.4708472481
  N         6.4773725537       13.8648290768       16.0180336177
  C         6.2080961091       12.5472413831       16.2883607750
  N        15.7392668670        3.0460082048       17.5728171853
  C        16.0087372336        1.7282682467       17.3025886027
  N        15.7383221193       13.8671068530        6.7555057114
  C        16.0079475725       12.5494080132        6.4882656559
  N        15.7406217374       19.7286064114        5.2001911925
  C        16.0094718343       21.0463449678        5.4708430458
  N        15.7451538571        8.9104495139       16.0144689207
  C        16.0169661507       10.2276868943       16.2828393512
  N        17.2937188694        6.7588520185       19.7289984088
  C        17.0233994808        6.4889272904       21.0466998790
  N        17.2988836001       17.5723316901        8.9097039398
  C        17.0312741347       17.3005173962       10.2273685211
  N         4.9202031278        6.7551334431        3.0431165072
  C         5.1923253540        6.4871693040        1.7254754599
  N         4.9219805386       17.5744827236       13.8645194422
  C         5.1924035299       17.3046712849       12.5469990503
  N        17.2943089942       16.0160701434        3.0459928840
  C        17.0242298515       16.2860746646        1.7282173752
  N        17.2974911495        5.2031538162       13.8643833997
  C        17.0263506280        5.4747356807       12.5473052580
  N         4.9229037395       16.0178296840       19.7287087416
  C         5.1941986682       16.2866028170       21.0463237161
  N         4.9206378670        5.1980206252        8.9074872913
  C         5.1917824523        5.4677100306       10.2248947100
  N        17.2941854756       19.7293674316       16.0170966103
  C        17.0240607047       21.0471634656       16.2866840432
  N        17.2889937584        8.9090236036        5.2082994772
  C        17.0220444768       10.2271693531        5.4778077873
  N         4.9234393083        3.0446142417       16.0169356063
  C         5.1944532842        1.7270559048       16.2861944981
  N         4.9227179749       13.8630802849        5.1990608606
  C         5.1928419404       12.5454148410        5.4683352069
  N        17.2901586402        3.0456584377        6.7596549519
  C        17.0219512393        1.7276446149        6.4893864675
  N        17.2982112366       13.8652438729       17.5737382887
  C        17.0308422692       12.5476766060       17.3012906613
  N         4.9228867992       19.7270109545        6.7568255056
  C         5.1936939925       21.0446986308        6.4879148504
  N         4.9219249606        8.9088808442       17.5728010242
  C         5.1924350257       10.2265152891       17.3037999786
  N        19.4446521730        6.7577072727        5.2015139103
  C        20.7626479253        6.4876063512        5.4715232942
  N         8.6302175953        6.7567326078       16.0176633474
  C         9.9479835721        6.4882043597       16.2881998001
  N         2.7673524233        6.7554718953       17.5726633890
  C         1.4495186663        6.4860007257       17.3027127857
  N        13.5853973697        6.7502853386        6.7502786578
  C        12.2674097640        6.4807586364        6.4807559017
  N         2.7664123427       16.0163605602        5.1992153646
  C         1.4488676882       16.2865946940        5.4699945206
  N        13.5862474685       16.0149770498       16.0149649871
  C        12.2689138524       16.2856810057       16.2856893017
  N        19.4497963218       16.0190885972       17.5750769327
  C        20.7675660272       16.2880866293       17.3040901212
  N         8.6302161675       16.0176644957        6.7567322941
  C         9.9479820608       16.2881974465        6.4881994826
  N         6.4795437312       17.5728503465        3.0450492700
  C         6.2105545851       17.3021317498        1.7272536380
  N         6.4785972821        6.7552545987       13.8624231542
  C         6.2088402992        6.4843921471       12.5448898147
  N         6.4785052595        5.2007600352       19.7269682809
  C         6.2095362450        5.4717710443       21.0447058169
  N         6.4770845364       16.0163137121        8.9091966396
  C         6.2080576760       16.2874531344       10.2267277419
  N        15.7389989596       17.5736206691       19.7295387992
  C        16.0084983852       17.3031207981       21.0473011355
  N        15.7318665036        6.7624798284        8.9127425323
  C        16.0042974197        6.4919250415       10.2294266827
  N        15.7391696972        5.1992520780        3.0443700502
  C        16.0088311606        5.4705828146        1.7270063161
  N        15.7443846363       16.0159463604       13.8649702925
  C        16.0165075383       16.2836149450       12.5476495444
 Zn        14.4505608057       14.7220858566       14.7220927443
 Cl        13.2414301474       13.4777327312       13.4777441430
 Zn        14.4479332693        3.9023332176        3.9023323416
 Cl        13.2245608297        2.6655787655        2.6655703082
 Zn         3.6295321738       14.7236426793        3.9049700801
 Cl         2.3996583138       13.4903671373        2.6714204396
 Zn         3.6295306013        3.9049689043       14.7236426721
 Cl         2.3996559046        2.6714210566       13.4903658328
 Zn         7.7710447921        8.0500210650       14.7229880746
 Cl         9.0069001013        9.2824189787       13.4943175728
 Zn         7.7719348012       18.8675799607        3.9062799348
 Cl         9.0060988829       20.1000942507        2.6763568875
 Zn        18.5784063912        8.0522291902        3.9100737768
 Cl        19.8093527737        9.2921688360        2.6834941273
 Zn        18.5894572123       18.8695271717       14.7253292529
 Cl        19.8210380628       20.1013375124       13.4920524489
 Zn         7.7710461341       14.7229876922        8.0500203152
 Cl         9.0069017112       13.4943141091        9.2824149289
 Zn         7.7719330909        3.9062816231       18.8675831597
 Cl         9.0061034374        2.6763605213       20.1000933018
 Zn        18.5894525329       14.7253300874       18.8695254500
 Cl        19.8210311979       13.4920556648       20.1013399904
 Zn        18.5784038019        3.9100752439        8.0522298890
 Cl        19.8093627527        2.6835003793        9.2921632162
 Zn        14.4384499114        8.0499582525        8.0499543415
 Cl        13.1177788589        9.2364804313        9.2364765125
 Zn        14.4476956261       18.8670545220       18.8670630344
 Cl        13.2086854311       20.0959558923       20.0959605104
 Zn         3.6291175898        8.0493895232       18.8669893740
 Cl         2.3953968997        9.2827422857       20.0966816670
 Zn         3.6291179342       18.8669871533        8.0493865134
 Cl         2.3953981929       20.0966775817        9.2827413497
 Zn        14.4492544266       14.7236279896        8.0530742426
 Cl        13.2314441837       13.4787207819        9.2885355451
 Zn        14.4480518993        3.9073492905       18.8670776763
 Cl        13.2110774225        2.6754862774       20.0949999638
 Zn         3.6290315781       14.7247656337       18.8687682609
 Cl         2.3970354696       13.4913589032       20.1000551913
 Zn         3.6270253199        3.9048216778        8.0482436331
 Cl         2.3960636938        2.6724253770        9.2818641162
 Zn         7.7714475324        8.0469828239        8.0469814571
 Cl         8.9954057624        9.2832354272        9.2832410174
 Zn         7.7721484204       18.8679594827       18.8679602522
 Cl         9.0063326892       20.0991620282       20.0991582723
 Zn        18.5898056083        8.0500830078       18.8691360221
 Cl        19.8190572723        9.2844861322       20.1021415917
 Zn        18.5898081206       18.8691419546        8.0500798487
 Cl        19.8190598083       20.1021430124        9.2844886216
 Zn        14.4492618855        8.0530742854       14.7236333208
 Cl        13.2314456169        9.2885259378       13.4787243032
 Zn        14.4480511234       18.8670818099        3.9073392559
 Cl        13.2110737641       20.0950121415        2.6754843109
 Zn         3.6270268011        8.0482447759        3.9048200419
 Cl         2.3960577861        9.2818652833        2.6724300575
 Zn         3.6290308353       18.8687671083       14.7247655818
 Cl         2.3970457942       20.1000599590       13.4913545936
 Zn         7.7706093522       14.7241099984       14.7241096363
 Cl         9.0054699453       13.4930264047       13.4930223498
 Zn         7.7671273303        3.9034855107        3.9034876890
 Cl         9.0000599006        2.6714384345        2.6714379860
 Zn        18.5892375119       14.7241806317        3.9070671391
 Cl        19.8228852105       13.4915375626        2.6767462189
 Zn        18.5892329943        3.9070763070       14.7241792883
 Cl        19.8228789592        2.6767530121       13.4915400997
 Zn         5.6946675634        5.9760623729       16.7917823053
 Zn        16.5140370096       16.7947731322       16.7947441221
 Zn        16.5078998098        5.9784183291        5.9783934760
 Zn         5.6946641124       16.7917868402        5.9760589601
 Zn         5.6921405873        5.9731032274        5.9731194175
 Zn        16.5143075873       16.7952546725        5.9795373444
 Zn         5.6940854382       16.7951450554       16.7951175693
 Zn        16.5143058711        5.9794914889       16.7952440292
  N         3.5131920696        5.9769847204       16.7944570470
  N        14.3305005943        5.9721420283        5.9721343369
  N        18.7031582449       16.7976327843       16.7976295637
  N         7.8839761154       16.7949331628        5.9777212852
  N        18.6981375417        5.9797016321        5.9796993541
  N         7.8839775626        5.9777233749       16.7949342057
  N         3.5131906221       16.7944559766        5.9769854691
  N        14.3332547281       16.7930181938       16.7930499881
  N        16.5142721318        3.7916431968        5.9791148277
  N        16.5198879312       14.6116151354       16.7961134757
  N        16.5167956708       18.9827864649       16.7956207837
  N        16.5091681382        8.1640877117        5.9853412007
  N         5.7000005088       18.9802872974        5.9781366044
  N         5.6990062178        8.1624269188       16.7939720499
  N         5.7007918384        3.7913253238       16.7953068243
  N         5.7004300048       14.6092004471        5.9775849215
  N         5.7007910615       16.7953070541        3.7913244678
  N         5.7004295152        5.9775840029       14.6091997819
  N        16.5167896575       16.7956125931       18.9827818464
  N        16.5091685135        5.9853500239        8.1640828923
  N         5.7000021387        5.9781395322       18.9802885212
  N         5.6990040841       16.7939702391        8.1624252510
  N        16.5142706310        5.9791183693        3.7916373354
  N        16.5199057468       16.7960942933       14.6116125767
  N         5.6965575161        3.7895888628        5.9755123137
  N         5.6992655433       14.6112024423       16.7960435085
  N        16.5175429212       18.9821806353        5.9793097908
  N        16.5207165376        8.1635081947       16.7944283236
  N         5.7001094771       18.9819618672       16.7963609195
  N         5.6981937024        8.1602638121        5.9757400039
  N        16.5169766123        3.7925903768       16.7946822726
  N        16.5182832386       14.6122887695        5.9784872179
  N         3.5126600872       16.7961716572       16.7961695123
  N        14.3329822132       16.7959279032        5.9829573902
  N        18.7036568104       16.7979889157        5.9777619904
  N         7.8841329989       16.7959128463       16.7959163961
  N        18.7036572474        5.9777589107       16.7979889881
  N         7.8816477623        5.9750811136        5.9750865851
  N         3.5087053391        5.9760081552        5.9760089076
  N        14.3329830116        5.9829589949       16.7959272438
  N        16.5175435587        5.9793098439       18.9821762350
  N        16.5207238872       16.7944195305        8.1635129109
  N        16.5169777424       16.7946852760        3.7925935620
  N        16.5182845861        5.9784870913       14.6122848372
  N         5.6965579076        5.9755078224        3.7895927391
  N         5.6992632805       16.7960451232       14.6111974063
  N         5.7001098986       16.7963635151       18.9819584593
  N         5.6981958325        5.9757364331        8.1602654738
  C        11.1078888768       15.7360106257       15.7360121096
  H        11.1060362684       14.9604771684       14.9604708072
  C        11.1054723932        4.9148771497        4.9148776595
  H        11.1044805633        4.1393591795        4.1393589472
  C         0.2878395392       15.7366971225        4.9202554311
  H         0.2870382923       14.9607840816        4.1450602713
  C         0.2878409619        4.9202543821       15.7366979527
  H         0.2870370384        4.1450619865       14.9607825787
  C        11.1079158285        7.0401652943       15.7384971019
  H        11.1065720350        7.8159649345       14.9632090851
  C        11.1093762003       17.8538941056        4.9219996203
  H        11.1100864075       18.6288766557        4.1458366292
  C         0.2835407765        7.0373510719        4.9210192080
  H         0.2836787575        7.8131605283        4.1457542074
  C         0.2880683069       17.8537392837       15.7370879547
  H         0.2880426275       18.6289050667       14.9611348165
  C        11.1079145327       15.7384952499        7.0401606125
  H        11.1065724064       14.9632094981        7.8159608868
  C        11.1093787426        4.9220043798       17.8538950744
  H        11.1100928873        4.1458387114       18.6288759046
  C         0.2880668775       15.7370883548       17.8537378202
  H         0.2880370960       14.9611348620       18.6289035039
  C         0.2835406552        4.9210181651        7.0373486179
  H         0.2836838623        4.1457517889        7.8131565281
  C        11.1073425516        7.0316175729        7.0316172488
  H        11.1104967024        7.8072301635        7.8072306730
  C        11.1098951608       17.8527422522       17.8527451349
  H        11.1109676954       18.6283292286       18.6283239868
  C         0.2893456471        7.0366416815       17.8536084274
  H         0.2902362054        7.8124182408       18.6289420161
  C         0.2893450473       17.8536072611        7.0366431458
  H         0.2902363230       18.6289425382        7.8124186227
  C        15.4679973647       11.3877171753       15.7308056221
  H        14.6940863574       11.3880524278       14.9536242428
  C        15.4598941030        0.5664589026        4.9191799735
  H        14.6858864958        0.5665939645        4.1420618108
  C         4.6419605161       11.3855301990        4.9175403476
  H         3.8662783908       11.3861568717        4.1421006538
  C         4.6442729279        0.5666566956       15.7356992191
  H         3.8688198965        0.5667329575       14.9600149468
  C        15.4536445986       11.3909989425        7.0386496377
  H        14.6736243266       11.3952382317        7.8093268170
  C        15.4582777591        0.5679583440       17.8531992040
  H        14.6826150924        0.5684355585       18.6286549337
  C         4.6422442120       11.3865502923       17.8549758072
  H         3.8666964842       11.3862183330       18.6305566553
  C         4.6432301896        0.5649461995        7.0385369182
  H         3.8678750721        0.5648786715        7.8143039454
  C         6.7585589420       11.3871752730       15.7374525721
  H         7.5339183502       11.3874642016       14.9616800694
  C         6.7596200741        0.5652239289        4.9213556859
  H         7.5352603909        0.5655292968        4.1458501851
  C        17.5758737048       11.3855566060        4.9267644334
  H        18.3522642751       11.3824930350        4.1520224279
  C        17.5740347914        0.5675230277       15.7355875910
  H        18.3490602885        0.5672046400       14.9594680755
  C         6.7590333073       11.3840985061        7.0341907185
  H         7.5345141159       11.3831512896        7.8098688271
  C         6.7612508200        0.5667661962       17.8522309264
  H         7.5370817817        0.5668030801       18.6275271885
  C        17.5811230870       11.3874386223       17.8518918567
  H        18.3551504724       11.3873001934       18.6289845129
  C        17.5715812503        0.5674303156        7.0410714079
  H        18.3450675050        0.5676898889        7.8186956570
  C        15.4680025566       15.7307973096       11.3877176664
  H        14.6940840137       14.9536203449       11.3880573801
  C        15.4598969589        4.9191790798        0.5664539127
  H        14.6858925034        4.1420581771        0.5665835874
  C         4.6442733606       15.7356988563        0.5666550684
  H         3.8688196765       14.9600166871        0.5667312514
  C         4.6419586352        4.9175408012       11.3855297886
  H         3.8662759740        4.1421010509       11.3861546002
  C         6.7585567259       15.7374519573       11.3871736323
  H         7.5339167504       14.9616799015       11.3874646034
  C         6.7596225360        4.9213562270        0.5652245418
  H         7.5352634543        4.1458513831        0.5655253259
  C        17.5740377213       15.7355884957        0.5675220541
  H        18.3490651116       14.9594732499        0.5672038669
  C        17.5758698391        4.9267652547       11.3855512862
  H        18.3522665137        4.1520295526       11.3824902057
  C        15.4536397215        7.0386486443       11.3909980529
  H        14.6736224016        7.8093298586       11.3952461857
  C        15.4582804252       17.8532009279        0.5679553192
  H        14.6826238010       18.6286590924        0.5684268712
  C         4.6432320601        7.0385363991        0.5649498095
  H         3.8678761645        7.8143018012        0.5648854720
  C         4.6422420618       17.8549757339       11.3865472785
  H         3.8666952948       18.6305588885       11.3862160767
  C         6.7590316305        7.0341910782       11.3840987214
  H         7.5345129226        7.8098694327       11.3831532365
  C         6.7612524983       17.8522300627        0.5667659048
  H         7.5370819451       18.6275266312        0.5668041037
  C        17.5715815469        7.0410746224        0.5674268470
  H        18.3450677893        7.8186984939        0.5676919695
  C        17.5811271352       17.8518829286       11.3874377865
  H        18.3551499986       18.6289831876       11.3872999275
 Xe        16.0799099802       10.9973442495       10.9973447714
