     409
 i =     150, E =    -5183.7340266160
  N         2.8809570519        5.2017843782       16.0044898018
  C         1.5628012591        5.4712177379       16.2712796927
  N        13.7147698370        5.1488083767        5.1488081571
  C        12.3918548845        5.4057458418        5.4057518603
  N        19.5669347787       17.5501642123       15.9953107436
  C        20.8844437245       17.2847850620       16.2688986396
  N         8.7535727269       17.6450101033        5.1204033926
  C        10.0695503936       17.3640472698        5.3939889712
  N        19.5625019073        5.1998642315        6.7556646615
  C        20.8798429664        5.4719203951        6.4878356404
  N         8.7535723678        5.1203963151       17.6450192447
  C        10.0695521068        5.3939850442       17.3640543235
  N         2.8772369157       17.5597052676        6.7583233120
  C         1.5604990614       17.2866617010        6.4877888754
  N        13.7191290487       17.5921976959       17.5921955920
  C        12.3963948011       17.3353100333       17.3353074140
  N        15.8875776273        3.0266540875        5.1813781843
  C        16.1540318107        1.7108588652        5.4586337464
  N        15.8307132293       13.8539757195       16.0103352147
  C        16.1009653432       12.5345700458       16.2753976676
  N        15.8858393116       19.7175453099       17.5660530155
  C        16.1536231711       21.0335882973       17.2916228789
  N        15.8282123817        8.8912942808        6.7306906943
  C        16.0999309805       10.2109485783        6.4660120369
  N         6.5514075296       19.7294538140        5.1793714511
  C         6.2845213408       21.0439634879        5.4584338284
  N         6.6033353610        8.8953554214       16.0319276448
  C         6.3365671880       10.2168078440       16.2930102215
  N         6.5563886310        3.0341080453       17.5826785085
  C         6.2918065653        1.7191536017       17.3028309370
  N         6.6176161033       13.8632048754        6.7469426513
  C         6.3455989648       12.5433013359        6.4822558396
  N         5.0232013318       16.0047783464        3.0388661266
  C         5.2902887249       16.2728343540        1.7205901785
  N         5.0458141393        5.2068370798       13.8610964093
  C         5.3181866764        5.4774473625       12.5436990354
  N        17.4244311352       15.9943291785       19.7137088763
  C        17.1589866610       16.2652766228       21.0324748305
  N        17.4003086673        5.1910459220        8.8957528201
  C        17.1262249839        5.4603061675       10.2122208543
  N         5.0172731569        6.7572374043       19.7237516561
  C         5.2832375240        6.4887526681       21.0418531791
  N         5.0323856049       17.5707081606        8.9066754019
  C         5.3088960017       17.2972725820       10.2222512607
  N        17.4251162954        6.7546347689        3.0314476430
  C        17.1585393021        6.4857731475        1.7127709675
  N        17.4031122815       17.5499981793       13.8492118912
  C        17.1273743443       17.2810911287       12.5327654514
  N         5.0156860191        3.0388354188        6.7576481675
  C         5.2820070583        1.7206068325        6.4891538100
  N         5.0408041901       13.8610001221       17.5616647454
  C         5.3130991093       12.5436099824       17.2926551204
  N        17.4241652239       19.7127213684        6.7590369809
  C        17.1585223553       21.0315383415        6.4883527022
  N        17.3993519929        8.8964124244       17.5473829609
  C        17.1247545320       10.2128899035       17.2792264235
  N         5.0250604302       19.7232810848       16.0042428534
  C         5.2915787811       21.0414218089       16.2729227597
  N         5.0396386620        8.9054464842        5.1988143841
  C         5.3150555568       10.2213695051        5.4730573452
  N        17.4248013058        3.0319841972       15.9977584688
  C        17.1586549835        1.7134981717       16.2674379601
  N        17.4041490114       13.8490139259        5.1895555861
  C        17.1288590121       12.5325102466        5.4590252034
  N         2.8815251111       16.0074137032       17.5626874467
  C         1.5640300347       16.2748673278       17.2907746931
  N        13.6894884295       16.0339824325        6.7059306139
  C        12.3772566764       16.3206712104        6.4234049187
  N        19.5661342452       15.9948500835        5.1981927449
  C        20.8829558259       16.2663914454        5.4691773352
  N         8.7380993969       16.0790785425       16.0790794349
  C        10.0598269421       16.3398219381       16.3398214361
  N        19.5626900825        6.7559271858       17.5476951360
  C        20.8807098600        6.4863639888       17.2809530649
  N         8.7350943891        6.6642400344        6.6642387067
  C        10.0566061908        6.4027665808        6.4027657384
  N         2.8773171259        6.7606794544        5.2044944117
  C         1.5598747837        6.4902758349        5.4742323493
  N        13.6894901385        6.7059325187       16.0339860493
  C        12.3772586661        6.4234066185       16.3206788184
  N        15.8868332397        5.1861451396       19.7170502564
  C        16.1540254349        5.4612649779       21.0328870826
  N        15.8273063127       16.0078705016        8.8921358707
  C        16.0984316718       16.2735382614       10.2116939634
  N        15.8854476176       17.5691429243        3.0281298414
  C        16.1530473071       17.2936026055        1.7119766207
  N        15.8314941742        6.7292521188       13.8534848455
  C        16.1024249131        6.4646896858       12.5340437992
  N         6.5477858463        5.1783633886        3.0336574520
  C         6.2825672684        5.4581909951        1.7191640887
  N         6.6112296905       16.0212902234       13.8620415685
  C         6.3403088749       16.2878191100       12.5424370709
  N         6.5608959936       17.5799222685       19.7280774128
  C         6.2941513166       17.3020658956       21.0431308182
  N         6.6117478010        6.7373862121        8.8952448317
  C         6.3427652262        6.4772549279       10.2164089939
  N        19.5626920517       17.5476919049        6.7559283662
  C        20.8806800107       17.2809465511        6.4863620648
  N         8.7566967064       17.6327433076       17.6327457039
  C        10.0725463701       17.3556797806       17.3556799580
  N         2.8773161036        5.2044898133        6.7606834194
  C         1.5598917792        5.4742309542        6.4902770052
  N        13.7166969740        5.1541622284       17.5943476781
  C        12.3937547887        5.4113222332       17.3388439850
  N         2.8815254039       17.5626872506       16.0074143988
  C         1.5640639192       17.2907710344       16.2748717438
  N        13.7166906766       17.5943446443        5.1541595990
  C        12.3937488838       17.3388378798        5.4113189921
  N        19.5661332388        5.1981915144       15.9948522527
  C        20.8829149881        5.4691831806       16.2664011664
  N         8.7506697814        5.1112657987        5.1112677130
  C        10.0671740004        5.3870750104        5.3870763137
  N         6.5608943649       19.7280751877       17.5799228503
  C         6.2941500175       21.0431352402       17.3020633646
  N         6.6117472573        8.8952429752        6.7373842052
  C         6.3427657122       10.2164032463        6.4772532832
  N         6.5477862015        3.0336532740        5.1783607111
  C         6.2825729476        1.7191381959        5.4581800747
  N         6.6112297932       13.8620417816       16.0212942101
  C         6.3403021861       12.5424585631       16.2878269488
  N        15.8854513025        3.0281288511       17.5691447491
  C        16.1530475659        1.7119554571       17.2936044934
  N        15.8314939902       13.8534877902        6.7292488106
  C        16.1024238030       12.5340608036        6.4646877909
  N        15.8868307824       19.7170527931        5.1861519008
  C        16.1540238176       21.0328933613        5.4612696207
  N        15.8273022962        8.8921347810       16.0078675185
  C        16.0984277656       10.2116857007       16.2735412192
  N        17.4241635470        6.7590337192       19.7127174135
  C        17.1585231363        6.4883513021       21.0315444399
  N        17.3993565694       17.5473850604        8.8964158001
  C        17.1247580545       17.2792219520       10.2128789213
  N         5.0156858709        6.7576495938        3.0388407699
  C         5.2820043765        6.4891610401        1.7205912720
  N         5.0408036243       17.5616607967       13.8609996173
  C         5.3131028523       17.2926495050       12.5436333133
  N        17.4247993287       15.9977590775        3.0319843484
  C        17.1586555535       16.2674369417        1.7134722241
  N        17.4041509281        5.1895593469       13.8490134490
  C        17.1288596470        5.4590285328       12.5325311422
  N         5.0250618441       16.0042433356       19.7232838150
  C         5.2915773007       16.2729231932       21.0414405767
  N         5.0396387529        5.1988158755        8.9054478518
  C         5.3150569630        5.4730614445       10.2213597453
  N        17.4244298032       19.7137089821       15.9943275894
  C        17.1589885574       21.0324987498       16.2652696428
  N        17.4003079714        8.8957531076        5.1910455257
  C        17.1262212400       10.2122048862        5.4603108868
  N         5.0231981001        3.0388659752       16.0047822329
  C         5.2902875107        1.7205801495       16.2728329219
  N         5.0458184279       13.8610949116        5.2068356253
  C         5.3181892410       12.5437049798        5.4774453491
  N        17.4251083992        3.0314533983        6.7546358181
  C        17.1585331505        1.7127677968        6.4857757831
  N        17.4031125819       13.8492092666       17.5500002362
  C        17.1273715010       12.5327783675       17.2810936488
  N         5.0172797796       19.7237469853        6.7572404197
  C         5.2832369277       21.0418796060        6.4887553828
  N         5.0323781613        8.9066757608       17.5707107933
  C         5.3088948356       10.2222208184       17.2972703354
  N        19.5625038067        6.7556664282        5.1998632317
  C        20.8798277694        6.4878331215        5.4719231619
  N         8.7353581284        6.6671684698       16.0854487161
  C        10.0571486165        6.4060059032       16.3446777654
  N         2.8772314187        6.7583264883       17.5597077796
  C         1.5605324272        6.4877856510       17.2866569336
  N        13.6892500749        6.7047570747        6.7047602481
  C        12.3767770822        6.4208141515        6.4208207358
  N         2.8809639394       16.0044895369        5.2017819079
  C         1.5628391799       16.2712814794        5.4712171140
  N        13.6923446045       16.0358113919       16.0358091274
  C        12.3799967825       16.3200823213       16.3200795438
  N        19.5669353273       15.9953080854       17.5501640300
  C        20.8844111239       16.2689007082       17.2847812381
  N         8.7353616189       16.0854403275        6.6671755275
  C        10.0571518554       16.3446698666        6.4060110217
  N         6.5563929857       17.5826716200        3.0341099795
  C         6.2918100961       17.3028325409        1.7191501545
  N         6.6176145087        6.7469425658       13.8632091094
  C         6.3455962010        6.4822553026       12.5433096606
  N         6.5514029163        5.1793689190       19.7294612173
  C         6.2845195100        5.4584352705       21.0439920397
  N         6.6033435256       16.0319276201        8.8953557017
  C         6.3365727000       16.2930100248       10.2167881774
  N        15.8858413296       17.5660569215       19.7175446881
  C        16.1536223740       17.2916301700       21.0336049469
  N        15.8282131420        6.7306899463        8.8912941397
  C        16.0999348920        6.4660066683       10.2109360175
  N        15.8875859964        5.1813792550        3.0266503533
  C        16.1540382508        5.4586310307        1.7108506354
  N        15.8307118585       16.0103346671       13.8539775825
  C        16.1009672184       16.2753958530       12.5345810774
 Zn        14.5333506816       14.7304624635       14.7304611815
 Cl        13.3064042985       13.4956899704       13.4956832505
 Zn        14.6048007559        3.8713927321        3.8713728899
 Cl        13.3952327175        2.6271061427        2.6271206086
 Zn         3.7414115684       14.7129545336        3.9101335342
 Cl         2.5177763174       13.4571975757        2.6932257219
 Zn         3.7414122567        3.9101261950       14.7129503787
 Cl         2.5177714466        2.6932313271       13.4571928393
 Zn         7.9040918475        7.9725178560       14.8074610779
 Cl         9.4203688116        9.1126276062       13.8447020880
 Zn         7.8432109338       18.9122773468        3.8517051879
 Cl         9.0025109712       20.1790061230        2.5869598009
 Zn        18.7069450834        8.0497958704        3.9034070153
 Cl        19.9461192289        9.2878921656        2.6838841584
 Zn        18.7072272459       18.8371572770       14.7031147070
 Cl        19.9437595957       20.0600861885       13.4641290698
 Zn         7.9040875882       14.8074547974        7.9725276258
 Cl         9.4203705299       13.8446936525        9.1126259987
 Zn         7.8432132780        3.8516943707       18.9122908587
 Cl         9.0025137042        2.5869466196       20.1790177526
 Zn        18.7072259243       14.7031210619       18.8371534555
 Cl        19.9437569551       13.4641287767       20.0600840356
 Zn        18.7069443272        3.9034053914        8.0497930762
 Cl        19.9461073157        2.6838876446        9.2878993271
 Zn        14.5313265226        8.0076079874        8.0076127544
 Cl        13.3030426728        9.2424251367        9.2424332337
 Zn        14.6026834703       18.8746825757       18.8746753358
 Cl        13.3898500633       20.1171124178       20.1171085079
 Zn         3.7316240219        8.0524509951       18.8579638018
 Cl         2.4986435287        9.2912555750       20.0822683828
 Zn         3.7316211432       18.8579615503        8.0524594138
 Cl         2.4986462589       20.0822745302        9.2912574972
 Zn        14.5322869478       14.7281823923        8.0075371374
 Cl        13.3053328874       13.4901933067        9.2397722623
 Zn        14.6030619406        3.8786365049       18.8773428458
 Cl        13.3915761047        2.6360258426       20.1215380326
 Zn         3.7386512454       14.7141914329       18.8527544166
 Cl         2.5123967692       13.4687861828       20.0781017654
 Zn         3.7347170363        3.9074140171        8.0538448855
 Cl         2.5053121611        2.6892028210        9.3019714286
 Zn         7.9059505040        7.9569960947        7.9569938517
 Cl         9.4386125613        8.9993480737        8.9993147815
 Zn         7.8499212920       18.9004500727       18.9004548904
 Cl         9.0149258435       20.1645447289       20.1645441817
 Zn        18.7050162560        8.0532589572       18.8347037489
 Cl        19.9424627139        9.2918362375       20.0563674199
 Zn        18.7050266292       18.8346992004        8.0532536279
 Cl        19.9424665240       20.0563668031        9.2918415748
 Zn        14.5322715560        8.0075411424       14.7281812701
 Cl        13.3053227390        9.2397839121       13.4901926996
 Zn        14.6030662797       18.8773407188        3.8786365998
 Cl        13.3915701263       20.1215266907        2.6360273026
 Zn         3.7347133738        8.0538468191        3.9074195374
 Cl         2.5053196181        9.3019680569        2.6891974157
 Zn         3.7386530043       18.8527430445       14.7141947387
 Cl         2.5123985018       20.0780965037       13.4687885195
 Zn         7.9028244927       14.7840779326       14.7840886353
 Cl         9.4155942525       13.7278951063       13.7278970192
 Zn         7.8370403269        3.8461948579        3.8461883606
 Cl         8.9843944245        2.5750462354        2.5750413824
 Zn        18.7087933882       14.7059302805        3.9017931961
 Cl        19.9472010364       13.4682125371        2.6803504908
 Zn        18.7087859174        3.9018023582       14.7059374736
 Cl        19.9472025562        2.6803588455       13.4682268719
 Zn         5.8056325865        5.9530738292       16.8178189838
 Zn        16.6292736492       16.7790406225       16.7790383731
 Zn        16.6290972450        5.9583064820        5.9583127281
 Zn         5.8056589368       16.8178176613        5.9530753952
 Zn         5.8020216142        5.9496076096        5.9496074845
 Zn        16.6286896337       16.7786077587        5.9593856651
 Zn         5.8143396484       16.8124763434       16.8124808879
 Zn        16.6287191687        5.9593869096       16.7786072733
  N         3.6256471375        5.9803417839       16.7836785850
  N        14.4483208532        5.9334438705        5.9334500518
  N        18.8201431169       16.7704481994       16.7704740205
  N         7.9980816175       16.8690075442        5.8931759140
  N        18.8159839501        5.9766600276        5.9766443318
  N         7.9980783131        5.8931667156       16.8690133592
  N         3.6256551161       16.7836573654        5.9803171193
  N        14.4518838232       16.8072186853       16.8072164770
  N        16.6559302629        3.7757139559        5.9654677668
  N        16.6184271209       14.5977572871       16.7810333230
  N        16.6539064652       18.9687583895       16.7814943604
  N        16.6152501018        8.1470666791        5.9594946444
  N         5.7846097783       18.9809320949        5.9649072142
  N         5.8154299624        8.1541899511       16.8054043744
  N         5.7891599990        3.7826568834       16.7976008037
  N         5.8309981393       14.6092772349        5.9738830370
  N         5.7891606430       16.7975869615        3.7826564975
  N         5.8309992664        5.9738880044       14.6092814059
  N        16.6539220707       16.7814853890       18.9687591080
  N        16.6152421416        5.9594996913        8.1470660345
  N         5.7845860239        5.9649176635       18.9809385764
  N         5.8154551144       16.8053877290        8.1541878750
  N        16.6559457322        5.9654746038        3.7757089840
  N        16.6184142104       16.7810238227       14.5977610201
  N         5.7814983104        3.7822382061        5.9641642504
  N         5.8255196699       14.6086267303       16.7932799205
  N        16.6544025084       18.9679867953        5.9708899550
  N        16.6147910478        8.1477776711       16.7784153339
  N         5.7930902410       18.9798981379       16.7950917510
  N         5.8234122637        8.1535039358        5.9635437676
  N        16.6543183196        3.7767006437       16.7849957214
  N        16.6188550379       14.5973544696        5.9581658531
  N         3.6285008022       16.7860156873       16.7859952022
  N        14.4493303434       16.8064901180        5.9362266542
  N        18.8177366931       16.7699755936        5.9767684178
  N         8.0013504447       16.8582138215       16.8582177733
  N        18.8177376558        5.9767415715       16.7699548390
  N         7.9963861047        5.8863072024        5.8863009927
  N         3.6237026995        5.9827126966        5.9827291488
  N        14.4493353472        5.9362320694       16.8064928396
  N        16.6543973774        5.9708786330       18.9679817849
  N        16.6148019582       16.7784276611        8.1477816177
  N        16.6542973813       16.7850078323        3.7767016673
  N        16.6188718865        5.9581595055       14.5973517388
  N         5.7815080756        5.9641553452        3.7822424183
  N         5.8255049403       16.7932881794       14.6086254388
  N         5.7931012140       16.7950989880       18.9798983457
  N         5.8234081225        5.9635386693        8.1535073388
  C        11.2122552204       15.7810246507       15.7810230223
  H        11.1916937407       15.0058911327       15.0058912641
  C        11.2382076641        4.8465145673        4.8465191889
  H        11.2536683912        4.0714464921        4.0714507361
  C         0.4045344498       15.7184650564        4.9192344971
  H         0.4063036708       14.9430356442        4.1435667708
  C         0.4045590247        4.9192319773       15.7184631987
  H         0.4062951259        4.1435701492       14.9430397120
  C        11.2091158152        6.9618551018       15.7818968308
  H        11.1880527896        7.7376252928       15.0075702433
  C        11.2414603521       17.9031429414        4.8544716677
  H        11.2585788712       18.6807128966        4.0819663820
  C         0.3997714304        7.0400071754        4.9228596086
  H         0.3990381523        7.8159969299        4.1477407652
  C         0.4041914395       17.8386402792       15.7213561813
  H         0.4036273831       18.6137982080       14.9453027153
  C        11.2091151885       15.7818909320        6.9618552850
  H        11.1880539230       15.0075636919        7.7376283614
  C        11.2414634119        4.8544699646       17.9031506612
  H        11.2585850058        4.0819643675       18.6807178343
  C         0.4042163918       15.7213554032       17.8386392841
  H         0.4036248665       14.9453021890       18.6137971921
  C         0.3997584880        4.9228566540        7.0400094240
  H         0.3990403460        4.1477370196        7.8159983715
  C        11.2098586351        6.9604757497        6.9604777084
  H        11.1903337992        7.7355020940        7.7355004084
  C        11.2438426487       17.8954712157       17.8954699714
  H        11.2602306568       18.6706106801       18.6706098024
  C         0.3987673952        7.0383280688       17.8338757451
  H         0.3956747992        7.8148080233       18.6085485673
  C         0.3988004890       17.8338682697        7.0383222292
  H         0.3956761614       18.6085456828        7.8148070262
  C        15.5441649849       11.3741138405       15.7296794780
  H        14.7619221335       11.3760392608       14.9609231618
  C        15.6085878255        0.5513157196        4.9036972049
  H        14.8409940798        0.5502839529        4.1200729594
  C         4.7610047277       11.3842994176        4.9317117574
  H         3.9785634014       11.3871720097        4.1627024705
  C         4.7477770980        0.5607166762       15.7138626590
  H         3.9817343858        0.5598304471       14.9291744277
  C        15.5458293608       11.3733425462        7.0104099318
  H        14.7636474614       11.3751089786        7.7792341916
  C        15.6077738938        0.5523075101       17.8484462223
  H        14.8394555953        0.5512662889       18.6313976416
  C         4.7556609730       11.3850360753       17.8393128042
  H         3.9736575389       11.3883932093       18.6086060976
  C         4.7398519053        0.5609351388        7.0485794485
  H         3.9743880482        0.5599469750        7.8339041586
  C         6.8964338061       11.3775279698       15.7496454911
  H         7.6909875938       11.3723988986       14.9948739655
  C         6.8272306243        0.5618281043        4.8992749614
  H         7.5896832908        0.5624819872        4.1102773277
  C        17.6833188679       11.3714494428        4.9150451864
  H        18.4662187651       11.3698278579        4.1469108728
  C        17.7036094993        0.5534264822       15.7100692781
  H        18.4716846206        0.5545657212       14.9272189636
  C         6.9006202015       11.3780023123        7.0210410488
  H         7.6918579251       11.3731271861        7.7787585808
  C         6.8373713122        0.5614758361       17.8606278800
  H         7.6010316587        0.5621778250       18.6484020160
  C        17.6817324858       11.3717840872       17.8250945904
  H        18.4646532538       11.3700115479       18.5933913668
  C        17.7027288230        0.5526703397        7.0439605024
  H        18.4702122792        0.5537249175        7.8272353006
  C        15.5441662378       15.7296757917       11.3741052594
  H        14.7619219827       14.9609222285       11.3760395500
  C        15.6085915942        4.9036930488        0.5513187287
  H        14.8409965437        4.1200676863        0.5502840401
  C         4.7477803580       15.7138681400        0.5607147439
  H         3.9817358109       14.9291748752        0.5598351826
  C         4.7610009108        4.9317126838       11.3843023859
  H         3.9785620101        4.1627063264       11.3871685111
  C         6.8964356189       15.7496456108       11.3775502530
  H         7.6909919849       14.9948702589       11.3723967813
  C         6.8272308550        4.8992778078        0.5618096696
  H         7.5896789134        4.1102820232        0.5624894200
  C        17.7036089911       15.7100734412        0.5534413372
  H        18.4716851750       14.9272234711        0.5545613819
  C        17.6833235033        4.9150428200       11.3714372662
  H        18.4662231756        4.1469118209       11.3698311359
  C        15.5458322215        7.0104084238       11.3733571475
  H        14.7636521670        7.7792340994       11.3751077343
  C        15.6077733554       17.8484505009        0.5522867749
  H        14.8394574603       18.6314022568        0.5512657196
  C         4.7398439768        7.0485880661        0.5609601193
  H         3.9743828788        7.8339046542        0.5599501545
  C         4.7556676335       17.8393058370       11.3850164649
  H         3.9736587677       18.6086026925       11.3883940991
  C         6.9006215915        7.0210436955       11.3779991370
  H         7.6918582465        7.7787586746       11.3731321943
  C         6.8373723703       17.8606284964        0.5614869282
  H         7.6010366945       18.6484022344        0.5621820465
  C        17.7027300007        7.0439589495        0.5526647699
  H        18.4702119257        7.8272370597        0.5537236716
  C        17.6817362163       17.8250902729       11.3717922176
  H        18.4646557391       18.5933877558       11.3700119375
 Xe         9.2124350756       11.3539418962       11.3539407314
