     409
 i =     150, E =    -5183.7580742132
  N         2.9382986124        5.2050666936       16.0247773965
  C         1.6198508085        5.4736930202       16.2915486666
  N        13.7449315323        5.1929330495        5.1929352747
  C        12.4274656528        5.4635004000        5.4635017727
  N        19.6356148929       17.5696051390       16.0133801464
  C        20.9534588670       17.3027262807       16.2866298448
  N         8.7997599792       17.5798956218        5.2180784940
  C        10.1176753676       17.3058622304        5.4821529550
  N        19.6065798435        5.1940365280        6.7500235063
  C        20.9243877345        5.4694411637        6.4854760227
  N         8.7997788329        5.2179528168       17.5797821588
  C        10.1177240519        5.4821169342       17.3058389380
  N         2.9330012043       17.5797519436        6.7622226579
  C         1.6163026702       17.3071978873        6.4900905334
  N        13.7701980194       17.5714818396       17.5714393030
  C        12.4517860297       17.3031026119       17.3030955758
  N        15.8974284783        3.0352110582        5.1912455738
  C        16.1679595358        1.7178301398        5.4622956300
  N        15.9190904233       13.8611930007       16.0131490833
  C        16.1871637019       12.5434829294       16.2836018354
  N        15.9234766006       19.7222896011       17.5669833524
  C        16.1895506088       21.0402164884       17.2947463635
  N        15.8999335599        8.9032469072        6.7495695564
  C        16.1729047311       10.2206993979        6.4814379935
  N         6.6436164760       19.7389810933        5.2167313231
  C         6.3704262643       21.0562964964        5.4857421716
  N         6.6410680675        8.9164749455       16.0177806426
  C         6.3729620110       10.2341928613       16.2876189157
  N         6.6517132885        3.0593308054       17.5846659809
  C         6.3864636010        1.7405557694       17.3135895276
  N         6.6495815060       13.8729122957        6.7583214652
  C         6.3793413321       12.5553936838        6.4906572965
  N         5.0971335736       16.0270989213        3.0550855622
  C         5.3712718354       16.2966774603        1.7380831872
  N         5.0889848531        5.2078208446       13.8716194057
  C         5.3594897635        5.4786627305       12.5542181520
  N        17.4786164095       16.0108986276       19.7237514700
  C        17.2055313345       16.2788287839       21.0413002248
  N        17.4539374905        5.1926059751        8.9018145305
  C        17.1880191325        5.4646879207       10.2196836845
  N         5.0866733556        6.7714941417       19.7367143723
  C         5.3544247485        6.5017957327       21.0549156149
  N         5.0872218260       17.5763260355        8.9187581479
  C         5.3589503249       17.3056878801       10.2358306685
  N        17.4519518641        6.7484571528        3.0373753456
  C        17.1831314490        6.4791403177        1.7193831760
  N        17.4769381278       17.5674618254       13.8594733530
  C        17.2040899231       17.2987404685       12.5421694041
  N         5.0765127956        3.0540560761        6.7695362039
  C         5.3485660575        1.7361196774        6.5012553758
  N         5.1030036497       13.8741344788       17.5817554798
  C         5.3665064455       12.5560939889       17.3082106376
  N        17.4599598098       19.7216363341        6.7488664932
  C        17.1868761432       21.0387000909        6.4792443802
  N        17.4666540696        8.9035533215       17.5701214225
  C        17.1991705434       10.2216089350       17.2998936348
  N         5.1085553023       19.7389182113       16.0267876723
  C         5.3767760272       21.0570183409       16.2965156134
  N         5.0871586715        8.9163243931        5.2182774721
  C         5.3591284053       10.2340939821        5.4843482674
  N        17.4687829591        3.0402367805       16.0075111128
  C        17.2005079378        1.7221991770       16.2773686576
  N        17.4670322169       13.8575484425        5.1980863583
  C        17.1944088751       12.5402351984        5.4671970682
  N         2.9526348097       16.0276449701       17.5836361958
  C         1.6348198967       16.2933797697       17.3093955422
  N        13.7566972566       16.0101674330        6.7542947165
  C        12.4389830720       16.2832959755        6.4888056162
  N        19.6224093792       16.0138297969        5.1971250457
  C        20.9392225931       16.2860211368        5.4693735014
  N         8.8105319479       16.0210270115       16.0209716221
  C        10.1285336764       16.2899034157       16.2898940098
  N        19.6171949046        6.7515334965       17.5712418837
  C        20.9356564265        6.4847334915       17.3026684780
  N         8.7911806415        6.7523150048        6.7523155924
  C        10.1082226304        6.4809093145        6.4809099308
  N         2.9234588047        6.7683990728        5.2127868966
  C         1.6056084534        6.4943463587        5.4783493260
  N        13.7567377485        6.7541588069       16.0100306633
  C        12.4390014172        6.4887802447       16.2832436397
  N        15.9055157197        5.1915711944       19.7182961027
  C        16.1717587303        5.4623869830       21.0367152736
  N        15.9112499576       16.0140886948        8.9060221756
  C        16.1831451869       16.2840191885       10.2231384333
  N        15.9105006478       17.5611509648        3.0382471204
  C        16.1833498874       17.2922872356        1.7209051654
  N        15.9108958444        6.7545434882       13.8590547097
  C        16.1786256789        6.4835613372       12.5412997373
  N         6.6279560593        5.2099214940        3.0545314754
  C         6.3624525755        5.4832549778        1.7369032895
  N         6.6545045709       16.0224333934       13.8714065163
  C         6.3798087746       16.2896366929       12.5543548305
  N         6.6634227822       17.5837509922       19.7412565068
  C         6.3921271080       17.3132093793       21.0588828195
  N         6.6495965511        6.7679824574        8.9183646060
  C         6.3796821551        6.4957517229       10.2352666024
  N        19.6172305117       17.5712553714        6.7514981781
  C        20.9356893376       17.3026746399        6.4847260428
  N         8.8136069995       17.5776314478       17.5775866717
  C        10.1307893071       17.3060073303       17.3060014494
  N         2.9234544122        5.2127661417        6.7684051747
  C         1.6055978886        5.4783401872        6.4943497218
  N        13.7553347899        5.1958505330       17.5631496188
  C        12.4379886284        5.4716133258       17.2980582422
  N         2.9526359654       17.5836379514       16.0276392406
  C         1.6348197292       17.3093999419       16.2933750351
  N        13.7552962548       17.5632876800        5.1959797761
  C        12.4379730443       17.2980893658        5.4716545028
  N        19.6223674300        5.1971560650       16.0138148298
  C        20.9391719666        5.4693865937       16.2860231413
  N         8.7876429561        5.1964270583        5.1964391298
  C        10.1061231435        5.4648876051        5.4648928081
  N         6.6634491037       19.7412258290       17.5837233650
  C         6.3921362478       21.0588563460       17.3132021556
  N         6.6495972217        8.9184021292        6.7679948682
  C         6.3796843885       10.2353028887        6.4957586169
  N         6.6279652567        3.0544854106        5.2099237869
  C         6.3624638665        1.7368598472        5.4832512519
  N         6.6544776415       13.8714493599       16.0224062489
  C         6.3797927291       12.5543951158       16.2896254932
  N        15.9104327220        3.0382479231       17.5610771934
  C        16.1833288362        1.7209082030       17.2922708606
  N        15.9109254851       13.8590532703        6.7545836347
  C        16.1786348740       12.5412901330        6.4835676311
  N        15.9054888147       19.7182847371        5.1915935463
  C        16.1717432533       21.0367219408        5.4623829127
  N        15.9113120768        8.9060268669       16.0140452268
  C        16.1831630999       10.2231272567       16.2840169102
  N        17.4599874267        6.7488576511       19.7216523674
  C        17.1868741934        6.4792362976       21.0387147371
  N        17.4665936294       17.5701566496        8.9035371061
  C        17.1991631697       17.2999044764       10.2215903895
  N         5.0765040170        6.7695355665        3.0541074564
  C         5.3485535973        6.5012586120        1.7361706475
  N         5.1030333532       17.5817793314       13.8740895421
  C         5.3665227728       17.3082232786       12.5560524106
  N        17.4688592867       16.0075805972        3.0402354215
  C        17.2005274051       16.2773879994        1.7222025020
  N        17.4669886288        5.1980510918       13.8575506575
  C        17.1943993503        5.4671879803       12.5402345350
  N         5.1085242380       16.0268200732       19.7389483645
  C         5.3767687217       16.2965278543       21.0570426415
  N         5.0871605195        5.2182554053        8.9162903635
  C         5.3591270707        5.4843390228       10.2340675179
  N        17.4785833646       19.7237497119       16.0108799235
  C        17.2055105777       21.0412981747       16.2788130576
  N        17.4539420360        8.9018124506        5.1926034966
  C        17.1880273879       10.2196863634        5.4646899144
  N         5.0971682228        3.0550727618       16.0270674137
  C         5.3712721749        1.7380696409       16.2966711886
  N         5.0889648748       13.8716382184        5.2078333814
  C         5.3594948603       12.5542425152        5.4786624855
  N        17.4519428465        3.0373730445        6.7484551207
  C        17.1831250013        1.7193786628        6.4791435602
  N        17.4769651978       13.8594759589       17.5674364537
  C        17.2040972632       12.5421740849       17.2987284373
  N         5.0867407074       19.7366709282        6.7715300149
  C         5.3544375561       21.0548713622        6.5017961375
  N         5.0871274993        8.9187971677       17.5762625698
  C         5.3589271899       10.2358775215       17.3056730665
  N        19.6065855774        6.7500349359        5.1940256726
  C        20.9243987612        6.4854806422        5.4694369934
  N         8.8012901670        6.7721387553       16.0228356745
  C        10.1185935198        6.4976865823       16.2894717290
  N         2.9329612013        6.7622514305       17.5797452760
  C         1.6162610175        6.4900995001       17.3071936870
  N        13.7466057928        6.7492588060        6.7492624720
  C        12.4287391060        6.4795113906        6.4795132329
  N         2.9383322946       16.0247919402        5.2050438733
  C         1.6198799214       16.2915503242        5.4736820649
  N        13.7663421823       16.0157252701       16.0156861405
  C        12.4493649396       16.2871321704       16.2871272376
  N        19.6356184513       16.0133763279       17.5696071419
  C        20.9534646637       16.2866310042       17.3027235308
  N         8.8012749495       16.0229591932        6.7722611620
  C        10.1185555675       16.2895163864        6.4977070020
  N         6.6516733918       17.5846979265        3.0593519937
  C         6.3864589868       17.3135942875        1.7405845808
  N         6.6496059008        6.7583022513       13.8728858078
  C         6.3793426750        6.4906582909       12.5553668436
  N         6.6435666023        5.2166804394       19.7390211286
  C         6.3704065708        5.4857522640       21.0563341188
  N         6.6411508280       16.0178579552        8.9164439975
  C         6.3729879769       16.2876301202       10.2341632506
  N        15.9235075519       17.5670032501       19.7222869684
  C        16.1895737960       17.2947600311       21.0402116937
  N        15.8999281696        6.7495736200        8.9032510354
  C        16.1728979968        6.4814342819       10.2207048354
  N        15.8974373271        5.1912493348        3.0352143526
  C        16.1679689605        5.4622958240        1.7178397242
  N        15.9190691510       16.0131716333       13.8611938611
  C        16.1871551375       16.2836075806       12.5434790150
 Zn        14.6231358558       14.7219069313       14.7219086065
 Cl        13.3879740212       13.4910347354       13.4910338239
 Zn        14.6058396089        3.8991032199        3.8990984318
 Cl        13.3697237089        2.6684711419        2.6684757898
 Zn         3.8000554597       14.7328176437        3.9101416995
 Cl         2.5679923568       13.5029500625        2.6757126523
 Zn         3.8000205666        3.9101174811       14.7327750291
 Cl         2.5679363188        2.6756740829       13.5029199355
 Zn         7.9378815958        8.0580445423       14.7256895406
 Cl         9.1497029292        9.2956592709       13.4770278907
 Zn         7.9417409387       18.8772178538        3.9306170958
 Cl         9.1774102629       20.1073590178        2.6987750283
 Zn        18.7432627758        8.0414583730        3.8992305683
 Cl        19.9768232948        9.2727174995        2.6664920666
 Zn        18.7711203750       18.8612243529       14.7194042508
 Cl        20.0020454998       20.0910279683       13.4830785396
 Zn         7.9378496902       14.7257058092        8.0580194666
 Cl         9.1496889069       13.4770647279        9.2956122891
 Zn         7.9417638172        3.9305862724       18.8772435877
 Cl         9.1774371873        2.6987571549       20.1074143910
 Zn        18.7711216180       14.7194011177       18.8612219933
 Cl        20.0020512706       13.4830816709       20.0910257652
 Zn        18.7432578949        3.8992354802        8.0414481940
 Cl        19.9768200573        2.6664993664        9.2727125641
 Zn        14.6080773030        8.0438240542        8.0438199047
 Cl        13.3850621636        9.2806570124        9.2806553255
 Zn        14.6352594673       18.8641932375       18.8642015923
 Cl        13.4030871735       20.0966748071       20.0966750986
 Zn         3.7922401697        8.0590664877       18.8712677488
 Cl         2.5609090078        9.2958221905       20.0999404948
 Zn         3.7922633798       18.8712353102        8.0590420122
 Cl         2.5609548706       20.0999195883        9.2957876045
 Zn        14.6176235648       14.7197033571        8.0495182770
 Cl        13.3827310131       13.4906317139        9.2824392494
 Zn        14.6145729405        3.8987617647       18.8511604117
 Cl        13.3810878542        2.6658029267       20.0820201338
 Zn         3.8158311637       14.7349812055       18.8771131286
 Cl         2.5827678851       13.5028362451       20.1093948177
 Zn         3.7893257275        3.9256207060        8.0608976313
 Cl         2.5620643360        2.6988571216        9.3047022958
 Zn         7.9473319920        8.0529558200        8.0529444729
 Cl         9.2696774492        9.2383244873        9.2383266281
 Zn         7.9546483089       18.8743583140       18.8743740930
 Cl         9.1980747769       20.1011546319       20.1011640547
 Zn        18.7562460218        8.0424824730       18.8668474084
 Cl        19.9880718443        9.2736560813       20.1004956404
 Zn        18.7562707991       18.8668352212        8.0424771223
 Cl        19.9880839723       20.1004981591        9.2736570607
 Zn        14.6176456324        8.0495275207       14.7197084668
 Cl        13.3827524369        9.2824408160       13.4906326369
 Zn        14.6145545321       18.8511579858        3.8987547673
 Cl        13.3810634709       20.0820131629        2.6657932744
 Zn         3.7893218440        8.0609150204        3.9256680714
 Cl         2.5620600370        9.3047033996        2.6988812895
 Zn         3.8158324619       18.8770988221       14.7349539555
 Cl         2.5827759635       20.1093942831       13.5028179307
 Zn         7.9469135351       14.7270921652       14.7270741555
 Cl         9.1580759614       13.4838721702       13.4838598518
 Zn         7.9127805621        3.9074366995        3.9074552404
 Cl         9.1333753606        2.6689583168        2.6689700429
 Zn        18.7636506092       14.7181762894        3.9048545733
 Cl        19.9952541204       13.4829276250        2.6750751003
 Zn        18.7636395376        3.9048524004       14.7181767348
 Cl        19.9952522936        2.6750752970       13.4829405295
 Zn         5.8639456838        5.9932134323       16.8076791900
 Zn        16.7063836461       16.7864452007       16.7864539716
 Zn        16.6707770678        5.9651919594        5.9651890456
 Zn         5.8639665406       16.8076220110        5.9931764905
 Zn         5.8559925934        5.9916664646        5.9916681801
 Zn        16.6870742529       16.7838112337        5.9683268244
 Zn         5.8877704685       16.8097352958       16.8097414490
 Zn        16.6870881106        5.9683616072       16.7838511517
  N         3.6819864947        5.9844701996       16.8038423977
  N        14.4920145453        5.9707255926        5.9707206053
  N        18.8893202536       16.7898475200       16.7898476341
  N         8.0536650319       16.8036102474        5.9977872496
  N        18.8600248179        5.9691666823        5.9691616895
  N         8.0536882864        5.9981357206       16.8039567997
  N         3.6820247311       16.8037972984        5.9845067386
  N        14.5150355522       16.7927000859       16.7927930140
  N        16.6741958309        3.7826982990        5.9692912345
  N        16.6992871816       14.6066296616       16.7898565897
  N        16.7030399866       18.9762435210       16.7902749996
  N        16.6751394451        8.1557282168        5.9699377222
  N         5.8665290386       18.9913463364        5.9944279468
  N         5.8636784687        8.1714088816       16.7977394580
  N         5.8717850153        3.8037307297       16.8065812252
  N         5.8690768095       14.6190935648        5.9827719002
  N         5.8718795807       16.8064910853        3.8037552484
  N         5.8690184753        5.9828378983       14.6190625946
  N        16.7029712878       16.7901975858       18.9762390092
  N        16.6751588770        5.9699577493        8.1557322429
  N         5.8666255419        5.9945448431       18.9913805919
  N         5.8635247504       16.7975694988        8.1713787513
  N        16.6741859852        5.9693070771        3.7827060833
  N        16.6993539513       16.7897929913       14.6066222894
  N         5.8507274206        3.8010147009        5.9882477152
  N         5.8819220301       14.6196552206       16.8040499457
  N        16.6846260264       18.9732847669        5.9698822787
  N        16.6876184040        8.1580002135       16.7923209746
  N         5.8866501331       18.9936127547       16.8055822983
  N         5.8674301553        8.1709215782        5.9944608054
  N        16.6887954480        3.7856163469       16.7843941708
  N        16.6901559596       14.6045255881        5.9767755351
  N         3.6991993420       16.8079627424       16.8079607875
  N        14.5025293558       16.7848284620        5.9725575113
  N        18.8732483424       16.7916600794        5.9728592722
  N         8.0659605021       16.8001374463       16.8002441488
  N        18.8732074746        5.9728127084       16.7917176507
  N         8.0430502821        5.9755815449        5.9755790403
  N         3.6700521669        5.9929615951        5.9929684563
  N        14.5025635894        5.9729016361       16.7851678833
  N        16.6845759811        5.9699355973       18.9732854482
  N        16.6877296540       16.7921992997        8.1579986377
  N        16.6886255014       16.7842170601        3.7856192098
  N        16.6902334384        5.9768618842       14.6045208335
  N         5.8507442661        5.9882750782        3.8010641872
  N         5.8818540469       16.8039792518       14.6196091028
  N         5.8866992055       16.8055328790       18.9936363309
  N         5.8674142806        5.9944660346        8.1708900315
  C        11.2876513181       15.7381516550       15.7381440518
  H        11.2864207374       14.9626049398       14.9626009553
  C        11.2660500866        4.9138646819        4.9138691397
  H        11.2657324071        4.1383751223        4.1383800873
  C         0.4618345102       15.7380269969        4.9214339160
  H         0.4655858978       14.9621217289        4.1462223626
  C         0.4617918145        4.9214419977       15.7380225405
  H         0.4655285177        4.1462312141       14.9621228667
  C        11.2793976392        7.0438045894       15.7360612229
  H        11.2812683224        7.8194241361       14.9606030045
  C        11.2771721667       17.8522494829        4.9260871274
  H        11.2761363461       18.6274447438        4.1500879404
  C         0.4450096147        7.0405623567        4.9239388533
  H         0.4450121546        7.8166381087        4.1489218082
  C         0.4741782685       17.8560890682       15.7395202265
  H         0.4742855073       18.6314516031       14.9637799821
  C        11.2793636729       15.7361010735        7.0438696701
  H        11.2812192583       14.9606633766        7.8194713624
  C        11.2772042935        4.9260612908       17.8521836990
  H        11.2761826030        4.1500468577       18.6274000765
  C         0.4741782203       15.7395217496       17.8560842899
  H         0.4742915616       14.9637808748       18.6314445213
  C         0.4450084795        4.9239365963        7.0405609894
  H         0.4449903712        4.1489186037        7.8166357244
  C        11.2693800845        7.0305569780        7.0305593108
  H        11.2679071431        7.8061807057        7.8061859458
  C        11.2926907537       17.8548829837       17.8548742236
  H        11.2944307059       18.6304417526       18.6304333563
  C         0.4536465647        7.0380374427       17.8551775099
  H         0.4499892334        7.8137754188       18.6305482791
  C         0.4536926986       17.8551799243        7.0380223028
  H         0.4500514961       18.6305545576        7.8137646292
  C        15.6344023836       11.3841330321       15.7335857474
  H        14.8585673381       11.3854040381       14.9583072769
  C        15.6195094457        0.5563385724        4.9119530649
  H        14.8442284909        0.5551312235        4.1361584895
  C         4.8069290352       11.3930534031        4.9327416615
  H         4.0289766924       11.3904639014        4.1595700602
  C         4.8244288883        0.5762815932       15.7456049335
  H         4.0493100273        0.5742179470       14.9695495068
  C        15.6257188617       11.3817848089        7.0333646595
  H        14.8505239753       11.3828106768        7.8093064033
  C        15.6354030333        0.5596638967       17.8433357925
  H        14.8592580067        0.5582534276       18.6183482346
  C         4.8130454820       11.3971819716       17.8583266186
  H         4.0393739686       11.3989264363       18.6357632115
  C         4.8020256357        0.5743361886        7.0527573966
  H         4.0276376403        0.5721580209        7.8293944059
  C         6.9248716807       11.3931999591       15.7360007903
  H         7.6983557571       11.3915459701       14.9583975079
  C         6.9165443456        0.5778159319        4.9337205338
  H         7.6913650803        0.5803157603        4.1573485085
  C        17.7414744564       11.3790448882        4.9152966770
  H        18.5165510707       11.3776162291        4.1392557024
  C        17.7533260266        0.5625533408       15.7276283040
  H        18.5289232708        0.5638804725       14.9521318451
  C         6.9334192716       11.3964756009        7.0402310966
  H         7.7145260099       11.4001714439        7.8097881829
  C         6.9395118629        0.5809484244       17.8636394742
  H         7.7147997174        0.5828643283       18.6393915331
  C        17.7523755979       11.3809835268       17.8495223609
  H        18.5283976858       11.3798205753       18.6246175762
  C        17.7345906356        0.5599740953        7.0304187434
  H        18.5094261593        0.5615251696        7.8067339713
  C        15.6343955791       15.7335987984       11.3841255593
  H        14.8585611575       14.9583128553       11.3854094910
  C        15.6195136796        4.9119429587        0.5563499628
  H        14.8442386062        4.1361543233        0.5551326495
  C         4.8244165568       15.7456112627        0.5763138972
  H         4.0492966518       14.9695594431        0.5742533963
  C         4.8069313417        4.9327399524       11.3930177865
  H         4.0289798611        4.1595649598       11.3904225308
  C         6.9248944204       15.7360146375       11.3931560914
  H         7.6983733161       14.9584066825       11.3914965066
  C         6.9165314341        4.9337231795        0.5778646382
  H         7.6913512199        4.1573552216        0.5803646901
  C        17.7533528867       15.7276468268        0.5625519976
  H        18.5289414766       14.9521457282        0.5638827071
  C        17.7414644420        4.9152892747       11.3790481595
  H        18.5165427582        4.1392526932       11.3776139243
  C        15.6257069885        7.0333588028       11.3817825765
  H        14.8505165663        7.8092994030       11.3828163085
  C        15.6354279929       17.8433575231        0.5596626374
  H        14.8592771742       18.6183653294        0.5582477667
  C         4.8020064052        7.0527569979        0.5743856465
  H         4.0276143883        7.8293885395        0.5722270659
  C         4.8130688625       17.8583456450       11.3971389196
  H         4.0393981262       18.6357805231       11.3988637639
  C         6.9334193124        7.0402223309       11.3964375267
  H         7.7145280510        7.8097734231       11.4001171483
  C         6.9395046883       17.8636522556        0.5809747891
  H         7.7147899720       18.6394074082        0.5829061917
  C        17.7346041143        7.0304212205        0.5599748151
  H        18.5094356858        7.8067334036        0.5615217792
  C        17.7523578258       17.8495302970       11.3809825184
  H        18.5283832441       18.6246268950       11.3798176603
 Xe         6.2522625461       10.9488666507       10.9488670678
