     409
 i =     150, E =    -5183.7582970015
  N         2.7855731946        5.1927688204       16.0048771925
  C         1.4676611552        5.4636493207       16.2729852976
  N        13.5963920714        5.1735481780        5.1735417830
  C        12.2781881368        5.4435994816        5.4435983153
  N        19.4758860222       17.5603712950       16.0047970497
  C        20.7937748556       17.2924418407       16.2764511944
  N         8.6480060278       17.5771814979        5.1881027067
  C         9.9664264192       17.3086258956        5.4557462030
  N        19.4607228101        5.1969759061        6.7529551412
  C        20.7781957113        5.4691303834        6.4851264901
  N         8.6479997576        5.1881045172       17.5771849283
  C         9.9664248758        5.4557435549       17.3086279639
  N         2.7848123987       17.5568662970        6.7518043875
  C         1.4672133973       17.2869288222        6.4816269813
  N        13.6116719206       17.5763222269       17.5763461839
  C        12.2931969384       17.3072026176       17.3071511069
  N        15.7660123256        3.0327367485        5.1908642520
  C        16.0346192172        1.7156588676        5.4647751463
  N        15.7502683463       13.8554924992       16.0035591749
  C        16.0215670787       12.5378328398       16.2704762525
  N        15.7736647279       19.7190784041       17.5645313534
  C        16.0404241646       21.0364195869       17.2910175497
  N        15.7422925793        8.8974911788        6.7477235457
  C        16.0153236912       10.2155348406        6.4826204040
  N         6.4861346996       19.7217309931        5.1965675005
  C         6.2141984565       21.0384059423        5.4679762518
  N         6.5027947225        8.9008927294       16.0085093726
  C         6.2347093736       10.2190728355       16.2787945468
  N         6.4919941807        3.0386896010       17.5730152839
  C         6.2236407713        1.7211137098       17.3019285312
  N         6.5019494389       13.8553454505        6.7436696398
  C         6.2293741144       12.5376931324        6.4755905964
  N         4.9405650026       16.0124652872        3.0378449149
  C         5.2105809290       16.2829471610        1.7203826667
  N         4.9433176465        5.1907390783       13.8566783098
  C         5.2113713517        5.4616040422       12.5389965628
  N        17.3205275132       16.0001438619       19.7180146363
  C        17.0507383416       16.2693686682       21.0362369191
  N        17.3041014555        5.1983409749        8.8988039481
  C        17.0353772124        5.4706869462       10.2159050995
  N         4.9330970256        6.7554424336       19.7174342283
  C         5.2003149082        6.4861358825       21.0361848004
  N         4.9429716686       17.5596425908        8.9024934566
  C         5.2161219757       17.2921408357       10.2197747128
  N        17.3133751746        6.7554290956        3.0354262900
  C        17.0450038908        6.4864367251        1.7170780700
  N        17.3143895382       17.5512035621       13.8541513942
  C        17.0427702430       17.2812585314       12.5370374509
  N         4.9240554179        3.0355601801        6.7530697488
  C         5.1961822595        1.7177586249        6.4848069769
  N         4.9493437584       13.8575135531       17.5656865443
  C         5.2188698331       12.5400136117       17.2951737962
  N        17.3187110345       19.7171643944        6.7568218977
  C        17.0482846252       21.0354598255        6.4876416983
  N        17.3108310447        8.8999802914       17.5503846073
  C        17.0406322065       10.2172648246       17.2806280858
  N         4.9462024393       19.7218251008       16.0111102512
  C         5.2131734963       21.0398572242       16.2820712823
  N         4.9336990135        8.9018750151        5.1923167348
  C         5.2069267421       10.2187058488        5.4623073274
  N        17.3165798039        3.0356218002       16.0000532833
  C        17.0482013389        1.7175482417       16.2697144354
  N        17.3095574409       13.8528098902        5.1997333293
  C        17.0385318867       12.5357835844        5.4710900118
  N         2.7929591946       16.0093823863       17.5654348793
  C         1.4750795986       16.2787002558       17.2947848916
  N        13.6055287792       16.0210291844        6.7335321477
  C        12.2882556198       16.2928985555        6.4657038128
  N        19.4693829410       16.0026885426        5.1931257880
  C        20.7869240176       16.2721201540        5.4638751836
  N         8.6556689082       16.0178551627       16.0178779701
  C         9.9725604146       16.2894223348       16.2893631649
  N        19.4688104404        6.7513357723       17.5560415587
  C        20.7865555689        6.4814310413       17.2865508985
  N         8.6427979186        6.7359548102        6.7359591048
  C         9.9594452505        6.4635558346        6.4635597844
  N         2.7760190430        6.7538909546        5.1977742837
  C         1.4585293763        6.4855850111        5.4695510039
  N        13.6055352414        6.7335225141       16.0210354401
  C        12.2882521312        6.4656963428       16.2929000104
  N        15.7720414041        5.1921948778       19.7181388183
  C        16.0380921162        5.4658793942       21.0354597906
  N        15.7478290148       16.0023258575        8.8992990161
  C        16.0197078285       16.2696273168       10.2170842558
  N        15.7692365548       17.5643708749        3.0342218866
  C        16.0377965839       17.2913205248        1.7168947884
  N        15.7476391554        6.7498517883       13.8543647320
  C        16.0185548776        6.4831710224       12.5365445986
  N         6.4756977199        5.1926684961        3.0360046637
  C         6.2094875614        5.4660739107        1.7185405251
  N         6.5073221003       16.0122910105       13.8575744546
  C         6.2366809704       16.2810304814       12.5398658191
  N         6.4971922265       17.5711142125       19.7235723206
  C         6.2261614983       17.3009478666       21.0407737729
  N         6.4937864257        6.7436228364        8.8979094403
  C         6.2255416034        6.4756891270       10.2165790508
  N        19.4688088338       17.5560596931        6.7513296574
  C        20.7865451433       17.2865509870        6.4814371977
  N         8.6532690786       17.5742305933       17.5742504789
  C         9.9715095992       17.3054740464       17.3054118161
  N         2.7760160025        5.1977751659        6.7538919601
  C         1.4585311742        5.4695516179        6.4855860510
  N        13.6061698966        5.1799731709       17.5786797916
  C        12.2879125678        5.4510164594       17.3101947212
  N         2.7929554183       17.5654372750       16.0093835042
  C         1.4750836500       17.2947893556       16.2786984246
  N        13.6061616653       17.5786826048        5.1799720204
  C        12.2879162727       17.3101933350        5.4510227900
  N        19.4693859064        5.1931365153       16.0026791687
  C        20.7869348492        5.4638672275       16.2721205931
  N         8.6374794976        5.1806001323        5.1806004425
  C         9.9564748916        5.4476696426        5.4476705142
  N         6.4971980707       19.7235677041       17.5711127117
  C         6.2261685259       21.0407709960       17.3009417903
  N         6.4937860830        8.8979067960        6.7436267560
  C         6.2255425287       10.2165753412        6.4756930175
  N         6.4756950631        3.0360029790        5.1926676410
  C         6.2094852433        1.7185376924        5.4660733759
  N         6.5073187296       13.8575703575       16.0122916979
  C         6.2366749557       12.5398633641       16.2810255840
  N        15.7692540539        3.0342195060       17.5643674470
  C        16.0377861477        1.7168819665       17.2912950590
  N        15.7476208544       13.8543652559        6.7498436540
  C        16.0185681699       12.5365530576        6.4831842035
  N        15.7720224287       19.7181391977        5.1921890715
  C        16.0380827325       21.0354513761        5.4658738706
  N        15.7478345975        8.8992958060       16.0023259862
  C        16.0197086938       10.2170874886       16.2696159830
  N        17.3187207282        6.7568192101       19.7171650283
  C        17.0482937720        6.4876475820       21.0354706783
  N        17.3108323475       17.5503952852        8.8999858943
  C        17.0406272984       17.2806393158       10.2172606242
  N         4.9240562347        6.7530669070        3.0355636602
  C         5.1961833662        6.4848045001        1.7177597672
  N         4.9493451574       17.5656867230       13.8575162986
  C         5.2188750395       17.2951806979       12.5400197865
  N        17.3165717721       16.0000493837        3.0356271980
  C        17.0482115475       16.2697405057        1.7175640623
  N        17.3095668476        5.1997499018       13.8528103590
  C        17.0385215432        5.4710752158       12.5357717955
  N         4.9462002061       16.0111072395       19.7218282826
  C         5.2131681133       16.2820744995       21.0398635206
  N         4.9336965095        5.1923168655        8.9018790624
  C         5.2069241593        5.4623067075       10.2187074755
  N        17.3205264441       19.7179916967       16.0001434917
  C        17.0507280386       21.0362215493       16.2693549546
  N        17.3041013584        8.8988170950        5.1983401330
  C        17.0353785099       10.2159163369        5.4706858847
  N         4.9405659629        3.0378443284       16.0124655211
  C         5.2105866715        1.7203783479       16.2829407720
  N         4.9433182784       13.8566730103        5.1907403083
  C         5.2113727219       12.5389954680        5.4616055094
  N        17.3133766767        3.0354192473        6.7554208121
  C        17.0449987230        1.7170670507        6.4864319487
  N        17.3143780613       13.8541455547       17.5512157442
  C        17.0427775134       12.5370403589       17.2812488639
  N         4.9330936207       19.7174352720        6.7554452630
  C         5.2003141534       21.0361801796        6.4861376279
  N         4.9429734092        8.9024880669       17.5596406571
  C         5.2161152076       10.2197741432       17.2921325703
  N        19.4607242630        6.7529533912        5.1969770690
  C        20.7781940834        6.4851277976        5.4691277735
  N         8.6515161564        6.7409983438       16.0180063497
  C         9.9683307177        6.4699983500       16.2908961347
  N         2.7848242769        6.7518008384       17.5568666831
  C         1.4672229214        6.4816243352       17.2869268090
  N        13.5972185247        6.7287642931        6.7287594431
  C        12.2794738389        6.4595882719        6.4595894649
  N         2.7855592913       16.0048728337        5.1927697825
  C         1.4676499183       16.2729853510        5.4636511694
  N        13.6092348794       16.0203811510       16.0204062562
  C        12.2924403233       16.2912025104       16.2911536900
  N        19.4758904227       16.0047965325       17.5603657202
  C        20.7937708273       16.2764488125       17.2924403944
  N         8.6515190923       16.0180004458        6.7409996532
  C         9.9683335017       16.2908940080        6.4700017001
  N         6.4919959858       17.5730186337        3.0386889672
  C         6.2236336983       17.3019352987        1.7211171501
  N         6.5019493804        6.7436617915       13.8553500818
  C         6.2293760673        6.4755872163       12.5376960748
  N         6.4861352779        5.1965695899       19.7217318124
  C         6.2142008839        5.4679758626       21.0384093516
  N         6.5027930711       16.0085057996        8.9008957074
  C         6.2347132389       16.2788015799       10.2190750912
  N        15.7736682092       17.5645348377       19.7190889983
  C        16.0404346228       17.2910343991       21.0364360174
  N        15.7422905340        6.7477218425        8.8974824774
  C        16.0153231007        6.4826170315       10.2155230803
  N        15.7660114598        5.1908702916        3.0327438172
  C        16.0346255553        5.4647800927        1.7156653278
  N        15.7502800472       16.0035450493       13.8554896694
  C        16.0215597719       16.2704825872       12.5378329365
 Zn        14.4518675057       14.7218186662       14.7218218510
 Cl        13.1737584157       13.5124152207       13.5124099800
 Zn        14.4784711471        3.8898305364        3.8898303980
 Cl        13.2656200607        2.6472678981        2.6472615387
 Zn         3.6501690635       14.7171741479        3.8981485703
 Cl         2.4198787503       13.4825868652        2.6656633955
 Zn         3.6501661827        3.8981436077       14.7171728010
 Cl         2.4198756263        2.6656592440       13.4825835520
 Zn         7.7941023012        8.0330166782       14.7193135222
 Cl         9.0301215338        9.2647490133       13.4895481546
 Zn         7.7817368321       18.8708357173        3.9000469685
 Cl         9.0083495093       20.1082585739        2.6674095981
 Zn        18.6021005538        8.0479468589        3.9033833934
 Cl        19.8325199187        9.2899867485        2.6795531125
 Zn        18.6093814409       18.8451232570       14.7114419167
 Cl        19.8370514574       20.0735294346       13.4694202920
 Zn         7.7941019532       14.7193123540        8.0330198509
 Cl         9.0301241866       13.4895490985        9.2647500357
 Zn         7.7817344915        3.9000445130       18.8708383958
 Cl         9.0083515153        2.6674072037       20.1082581327
 Zn        18.6093768335       14.7114457797       18.8451269696
 Cl        19.8370586460       13.4694249055       20.0735205341
 Zn        18.6021000059        3.9033771300        8.0479400851
 Cl        19.8325135873        2.6795489268        9.2899877274
 Zn        14.4445919274        8.0232805961        8.0232764703
 Cl        13.1457130732        9.2227781750        9.2227665270
 Zn        14.4876490870       18.8662059251       18.8662136786
 Cl        13.2658783544       20.1039127444       20.1039097760
 Zn         3.6428335814        8.0480258870       18.8455754973
 Cl         2.4093964954        9.2830605503       20.0746509675
 Zn         3.6428305528       18.8455718700        8.0480256343
 Cl         2.4093936480       20.0746470362        9.2830600014
 Zn        14.4495161086       14.7218257952        8.0283798857
 Cl        13.1605334792       13.5253719387        9.2400073159
 Zn        14.4840865776        3.8931584286       18.8672304875
 Cl        13.2643923661        2.6528316997       20.1047533246
 Zn         3.6583276304       14.7179200044       18.8590331995
 Cl         2.4237372516       13.4840920375       20.0883718348
 Zn         3.6343255462        3.9016878639        8.0474651605
 Cl         2.4007285688        2.6752475496        9.2839251136
 Zn         7.7882090893        8.0292724932        8.0292791814
 Cl         9.0219975129        9.2615098656        9.2615141303
 Zn         7.7886288258       18.8670887812       18.8670946105
 Cl         9.0184594662       20.1005816996       20.1005700429
 Zn        18.6068418218        8.0485150006       18.8426896110
 Cl        19.8370454432        9.2862725372       20.0722149152
 Zn        18.6068309013       18.8426810178        8.0485006466
 Cl        19.8370180759       20.0722127445        9.2862584756
 Zn        14.4495063613        8.0283970438       14.7218173576
 Cl        13.1605177832        9.2400190901       13.5253539625
 Zn        14.4840837129       18.8672165650        3.8931675830
 Cl        13.2643898522       20.1047373753        2.6528492992
 Zn         3.6343269602        8.0474637286        3.9016884719
 Cl         2.4007284802        9.2839219068        2.6752486908
 Zn         3.6583293261       18.8590364055       14.7179205147
 Cl         2.4237431950       20.0883763524       13.4840873541
 Zn         7.7979407161       14.7214905585       14.7214958651
 Cl         9.0347008810       13.4912994642       13.4912891204
 Zn         7.7644704622        3.8940331634        3.8940343837
 Cl         8.9888280399        2.6572556271        2.6572617864
 Zn        18.6056890896       14.7104485750        3.9028103661
 Cl        19.8334909432       13.4647271709        2.6793583652
 Zn        18.6057033517        3.9027989536       14.7104354111
 Cl        19.8335021350        2.6793394919       13.4647074259
 Zn         5.7228037513        5.9654639872       16.7843189300
 Zn        16.5440322738       16.7822773857       16.7823057157
 Zn        16.5315605966        5.9612298269        5.9612281217
 Zn         5.7227997321       16.7843144732        5.9654662675
 Zn         5.7038017791        5.9637752651        5.9637766302
 Zn        16.5402196537       16.7817267092        5.9631825617
 Zn         5.7283544098       16.7863429581       16.7863635339
 Zn        16.5402195481        5.9631765085       16.7817281999
  N         3.5319460230        5.9721127795       16.7814303785
  N        14.3433261177        5.9513598758        5.9513560007
  N        18.7292570812       16.7812600461       16.7812668358
  N         7.9034623133       16.7963438402        5.9652251183
  N        18.7142568557        5.9737173015        5.9737106795
  N         7.9034626368        5.9652266318       16.7963496355
  N         3.5319367920       16.7814237969        5.9721217124
  N        14.3570706270       16.7974660473       16.7975375354
  N        16.5397883725        3.7803596277        5.9715116659
  N        16.5327384210       14.6013413742       16.7780860140
  N        16.5478795797       18.9718123458       16.7838887034
  N        16.5221759055        8.1513713510        5.9707648693
  N         5.7110359333       18.9730145047        5.9752085177
  N         5.7214145784        8.1550164085       16.7834189953
  N         5.7159504510        3.7846105693       16.7927154893
  N         5.7239452711       14.6024214264        5.9663699417
  N         5.7159540228       16.7927113865        3.7846159375
  N         5.7239481652        5.9663663775       14.6024213229
  N        16.5478745740       16.7838817027       18.9718313125
  N        16.5221621901        5.9707519703        8.1513583038
  N         5.7110369668        5.9752080996       18.9730203860
  N         5.7214070950       16.7834136567        8.1550151913
  N        16.5397874007        5.9715188900        3.7803670107
  N        16.5327722413       16.7780453766       14.6013433063
  N         5.6983596794        3.7821531402        5.9712562122
  N         5.7285971807       14.6040370748       16.7893269839
  N        16.5463369326       18.9709916740        5.9727803329
  N        16.5292247326        8.1528319701       16.7772232891
  N         5.7228369942       18.9758826003       16.7908572026
  N         5.7124051946        8.1532680695        5.9673960376
  N        16.5430892601        3.7813321254       16.7832936654
  N        16.5285870342       14.6000797695        5.9734344441
  N         3.5394297819       16.7876620457       16.7876584688
  N        14.3524213123       16.7984215951        5.9562967990
  N        18.7226050379       16.7792317161        5.9721245013
  N         7.9082486581       16.7953180809       16.7953869874
  N        18.7226200940        5.9721163360       16.7792342177
  N         7.8933671152        5.9596521474        5.9596549816
  N         3.5223263968        5.9747241299        5.9747248558
  N        14.3524123393        5.9562900304       16.7984220662
  N        16.5463469793        5.9727841541       18.9710054678
  N        16.5292722400       16.7771901379        8.1528218422
  N        16.5430671121       16.7832964832        3.7813513658
  N        16.5285641054        5.9734062706       14.6000620631
  N         5.6983603436        5.9712557185        3.7821553751
  N         5.7285985290       16.7893231232       14.6040417649
  N         5.7228345515       16.7908544764       18.9758881925
  N         5.7124035163        5.9673926805        8.1532704435
  C        11.1332118541       15.7399302496       15.7398669773
  H        11.1355900902       14.9643026147       14.9642975495
  C        11.1154782886        4.8952401840        4.8952381474
  H        11.1117364750        4.1197840175        4.1197799639
  C         0.3074758341       15.7227022906        4.9127653660
  H         0.3076879670       14.9477223224        4.1366735894
  C         0.3074867352        4.9127614751       15.7227008547
  H         0.3077071611        4.1366655606       14.9477249008
  C        11.1295969054        7.0178677933       15.7410460377
  H        11.1331793418        7.7927237825       14.9646768499
  C        11.1257873680       17.8607704975        4.9039319268
  H        11.1228870568       18.6371159590        4.1292939653
  C         0.2983544528        7.0365433155        4.9195264347
  H         0.2984467759        7.8125615605        4.1444169666
  C         0.3143959383       17.8438844989       15.7272360587
  H         0.3142872424       18.6187029288       14.9509530089
  C        11.1295983512       15.7410444885        7.0178729249
  H        11.1331794068       14.9646729850        7.7927268443
  C        11.1257845271        4.9039270617       17.8607738305
  H        11.1228805313        4.1292930307       18.6371218510
  C         0.3143950903       15.7272348662       17.8438797534
  H         0.3142909130       14.9509520928       18.6186970735
  C         0.2983543267        4.9195293652        7.0365439662
  H         0.2984423552        4.1444200727        7.8125632282
  C        11.1211455160        7.0120105641        7.0120149232
  H        11.1257084891        7.7876410144        7.7876462130
  C        11.1316358948       17.8567106175       17.8566399526
  H        11.1298422811       18.6321959029       18.6321799383
  C         0.3067766466        7.0331253351       17.8360852435
  H         0.3066453297        7.8102785166       18.6100894926
  C         0.3067682038       17.8360883518        7.0331276906
  H         0.3066353551       18.6100892569        7.8102851052
  C        15.4674413851       11.3780119099       15.7222987444
  H        14.6864986564       11.3791095004       14.9524831652
  C        15.4885206108        0.5545537530        4.9121905602
  H        14.7175892592        0.5530360562        4.1318581026
  C         4.6574129497       11.3797298879        4.9128594335
  H         3.8803342378       11.3811734019        4.1388266685
  C         4.6629682833        0.5596815627       15.7303693414
  H         3.8898377982        0.5591390935       14.9523862629
  C        15.4645007424       11.3765762022        7.0314447638
  H        14.6838652626       11.3775997912        7.8015829953
  C        15.4913251973        0.5560226682       17.8442656413
  H        14.7201615368        0.5550322159       18.6243100174
  C         4.6659076861       11.3798378188       17.8431229903
  H         3.8885633160       11.3797506411       18.6169497692
  C         4.6496307233        0.5562810153        7.0375044149
  H         3.8761234526        0.5553613936        7.8150235835
  C         6.7876519819       11.3794649185       15.7309051383
  H         7.5650447931       11.3796483121       14.9572184289
  C         6.7612720486        0.5591408470        4.9155925668
  H         7.5349661726        0.5602605100        4.1381094449
  C        17.5898308161       11.3752289743        4.9228872501
  H        18.3679232335       11.3743916980        4.1498254590
  C        17.5963850084        0.5575061303       15.7157373472
  H        18.3677469443        0.5586740850       14.9360978822
  C         6.7790492253       11.3762373383        7.0249950253
  H         7.5564128388       11.3749595972        7.7987598641
  C         6.7738096182        0.5612927644       17.8534739314
  H         7.5473846174        0.5617972229       18.6310235502
  C        17.5949971885       11.3765160704       17.8288128512
  H        18.3740421803       11.3756756566       18.6009943453
  C        17.5934494362        0.5572450096        7.0408096003
  H        18.3649361425        0.5589531362        7.8202674826
  C        15.4674337228       15.7223140322       11.3780111222
  H        14.6865173669       14.9524720006       11.3790969695
  C        15.4885286195        4.9121950339        0.5545581986
  H        14.7175974198        4.1318638676        0.5530390597
  C         4.6629622824       15.7303739796        0.5596848915
  H         3.8898364507       14.9523867743        0.5591415756
  C         4.6574090148        4.9128602408       11.3797337905
  H         3.8803287040        4.1388294790       11.3811769561
  C         6.7876564804       15.7309115542       11.3794683800
  H         7.5650431210       14.9572193816       11.3796480109
  C         6.7612761162        4.9155936727        0.5591423892
  H         7.5349717043        4.1381116017        0.5602632231
  C        17.5963959378       15.7157604510        0.5575215341
  H        18.3677487626       14.9361106265        0.5586972428
  C        17.5898307616        4.9228855346       11.3752209939
  H        18.3679176560        4.1498186978       11.3743736534
  C        15.4644981412        7.0314386913       11.3765705096
  H        14.6838545575        7.8015697920       11.3775895250
  C        15.4913369083       17.8442905350        0.5560312730
  H        14.7201625293       18.6243242822        0.5550352146
  C         4.6496293805        7.0375023184        0.5562824976
  H         3.8761214495        7.8150196969        0.5553634048
  C         4.6659171121       17.8431311749       11.3798429839
  H         3.8885679138       18.6169544582       11.3797510281
  C         6.7790509019        7.0249908847       11.3762415972
  H         7.5564150277        7.7987551105       11.3749601762
  C         6.7738010505       17.8534817485        0.5612937165
  H         7.5473806090       18.6310276324        0.5617995100
  C        17.5934570761        7.0408151425        0.5572549168
  H        18.3649429798        7.8202744504        0.5589680021
  C        17.5949837839       17.8288314227       11.3765183523
  H        18.3740512954       18.6009892149       11.3756734984
 Xe        15.6842496087       11.3393251482       11.3393253259
