     409
 i =     150, E =    -5183.7514279888
  N         3.0172757153        5.2051280034       16.0238986259
  C         1.6989817321        5.4753795157       16.2919805011
  N        13.8302530913        5.2016901728        5.2016870010
  C        12.5127748541        5.4728433950        5.4726694856
  N        19.7017897266       17.5753555072       16.0188370302
  C        21.0197621299       17.3056848921       16.2895606896
  N         8.8788439803       17.5802120709        5.2064077549
  C        10.1966837820       17.3080692547        5.4743364937
  N        19.6942398947        5.2014960395        6.7579086246
  C        21.0120961996        5.4742839107        6.4904105859
  N         8.8788310312        5.2063865734       17.5802733716
  C        10.1966762846        5.4743875276       17.3081522209
  N         3.0150503153       17.5796853565        6.7621341637
  C         1.6974642507       17.3079460787        6.4916587541
  N        13.8403354405       17.5760884987       17.5760871482
  C        12.5221790399       17.3067779501       17.3067904385
  N        15.9827980268        3.0458545190        5.2009091642
  C        16.2520168720        1.7282363970        5.4719041548
  N        15.9924588767       13.8655105136       16.0182965957
  C        16.2610240077       12.5479472701       16.2888819121
  N        15.9930883115       19.7300647371       17.5747172819
  C        16.2606925015       21.0477570728       17.3031584233
  N        15.9861008677        8.9104291549        6.7568062188
  C        16.2557010084       10.2278550663        6.4865048584
  N         6.7244827343       19.7368315185        5.2075384807
  C         6.4533927125       21.0543241001        5.4768664500
  N         6.7248460402        8.9160171470       16.0232363167
  C         6.4551917128       10.2335602376       16.2928747768
  N         6.7262391342        3.0524662446       17.5821700276
  C         6.4590172852        1.7346448918       17.3106330933
  N         6.7220254580       13.8708198636        6.7646338130
  C         6.4510530560       12.5534735231        6.4954780204
  N         5.1739488450       16.0238230269        3.0518342164
  C         5.4448725581       16.2929397711        1.7342674581
  N         5.1690322484        5.2071262057       13.8717437348
  C         5.4362966132        5.4783967441       12.5540476288
  N        17.5456214923       16.0163629554       19.7304373500
  C        17.2748741252       16.2854555468       21.0480247709
  N        17.5394641791        5.1992103790        8.9099786042
  C        17.2704444663        5.4693621710       10.2275283177
  N         5.1701569887        6.7644495556       19.7361572117
  C         5.4386903318        6.4941216300       21.0539085720
  N         5.1708978654       17.5805523506        8.9164874145
  C         5.4402860096       17.3099246032       10.2338809623
  N        17.5374498201        6.7575920467        3.0463892885
  C        17.2671810814        6.4886804031        1.7287614858
  N        17.5464233156       17.5753158570       13.8651474736
  C        17.2759598985       17.3058430275       12.5477131277
  N         5.1669515418        3.0520096234        6.7637287618
  C         5.4365301341        1.7343480452        6.4934466268
  N         5.1737172850       13.8715259254       17.5812610631
  C         5.4417773379       12.5538914905       17.3103883342
  N        17.5410136365       19.7310533430        6.7578078608
  C        17.2692029604       21.0484180317        6.4887779181
  N        17.5433443476        8.9101537934       17.5768932266
  C        17.2743748074       10.2277062101       17.3066023273
  N         5.1760551104       19.7361543407       16.0235073926
  C         5.4461348982       21.0538253893       16.2927592978
  N         5.1654419928        8.9164576561        5.2079652377
  C         5.4347045683       10.2339310793        5.4786961043
  N        17.5435250660        3.0462281601       16.0160458301
  C        17.2737103678        1.7285017097       16.2852793272
  N        17.5433703674       13.8649149439        5.2007723889
  C        17.2724148486       12.5475163259        5.4700460447
  N         3.0195819091       16.0243853344       17.5807991377
  C         1.7016335207       16.2921953249       17.3082908923
  N        13.8361886531       16.0187257695        6.7568469210
  C        12.5183500662       16.2895160994        6.4874888764
  N        19.6994962503       16.0189086692        5.2019624443
  C        21.0171321474       16.2895303797        5.4735713990
  N         8.8809796711       16.0233358878       16.0233488651
  C        10.1991906970       16.2926135896       16.2926302712
  N        19.6975172975        6.7577884821       17.5761085426
  C        21.0157282787        6.4894310117       17.3058746772
  N         8.8754607584        6.7618452374        6.7618351520
  C        10.1928848798        6.4909081673        6.4907489850
  N         3.0116200489        6.7637779683        5.2075983531
  C         1.6937003534        6.4933109120        5.4772508194
  N        13.8361706928        6.7568491202       16.0187369699
  C        12.5183168835        6.4875630342       16.2895828177
  N        15.9875773559        5.2002551800       19.7297759086
  C        16.2543758412        5.4717322281       21.0476762015
  N        15.9901093785       16.0191792264        8.9105218420
  C        16.2597609022       16.2893528042       10.2279462942
  N        15.9902028697       17.5738038715        3.0456632164
  C        16.2592657321       17.3027429878        1.7281251279
  N        15.9893960396        6.7577767049       13.8655116037
  C        16.2575178972        6.4870073548       12.5479318339
  N         6.7204132265        5.2062722713        3.0524924895
  C         6.4516817620        5.4767039889        1.7347863172
  N         6.7265166120       16.0235331321       13.8711342965
  C         6.4560044188       16.2928207370       12.5536623858
  N         6.7294470427       17.5814584913       19.7366500681
  C         6.4604855218       17.3103585915       21.0541871184
  N         6.7196909641        6.7649414079        8.9162741026
  C         6.4495104950        6.4957954990       10.2336594982
  N        19.6975367066       17.5761172020        6.7577978568
  C        21.0157383549       17.3059342786        6.4893797949
  N         8.8830499915       17.5797968102       17.5798027743
  C        10.2005826298       17.3087098870       17.3087241237
  N         3.0115736767        5.2075135361        6.7638532530
  C         1.6936568273        5.4772126828        6.4933461581
  N        13.8360701452        5.2001617070       17.5748366879
  C        12.5182176037        5.4714675443       17.3056793457
  N         3.0195770846       17.5808086879       16.0243737233
  C         1.7016375118       17.3082972393       16.2921895189
  N        13.8360748544       17.5748317365        5.2001491572
  C        12.5182560257       17.3055902528        5.4714121732
  N        19.6994656269        5.2019643838       16.0189145558
  C        21.0170968499        5.4736137963       16.2894648543
  N         8.8734036426        5.2055339348        5.2055222757
  C        10.1914652924        5.4748572794        5.4746968165
  N         6.7294440229       19.7366249933       17.5814647672
  C         6.4605709436       21.0541701284       17.3102867053
  N         6.7196693918        8.9162352055        6.7650272635
  C         6.4496641245       10.2336322675        6.4956802141
  N         6.7204398722        3.0524460983        5.2063653567
  C         6.4512827781        1.7347705590        5.4763744115
  N         6.7265169219       13.8711035422       16.0235190303
  C         6.4561610704       12.5536231569       16.2929673565
  N        15.9902121892        3.0456531069       17.5738004415
  C        16.2592640474        1.7281093280       17.3027322832
  N        15.9893914775       13.8654985399        6.7577901973
  C        16.2574797315       12.5479228294        6.4869799557
  N        15.9875771168       19.7297615309        5.2002644522
  C        16.2544321312       21.0476595179        5.4716901625
  N        15.9901114799        8.9105045130       16.0191953086
  C        16.2597405455       10.2279373811       16.2893668236
  N        17.5410042163        6.7577919306       19.7310575438
  C        17.2691510640        6.4888260675       21.0484308868
  N        17.5433508834       17.5768896276        8.9101617188
  C        17.2743864402       17.3065836733       10.2277062695
  N         5.1669440446        6.7636467983        3.0520864138
  C         5.4369099100        6.4938052544        1.7344004283
  N         5.1737171257       17.5812762869       13.8715385760
  C         5.4416294178       17.3102330505       12.5539274346
  N        17.5435244321       16.0160414754        3.0462313268
  C        17.2737106565       16.2852934366        1.7284976647
  N        17.5433654679        5.2007698195       13.8649278751
  C        17.2724545283        5.4700726120       12.5475340502
  N         5.1760578009       16.0234977872       19.7361773646
  C         5.4460564612       16.2928358423       21.0538537759
  N         5.1654537474        5.2079015220        8.9165166567
  C         5.4345439016        5.4788205880       10.2339821100
  N        17.5456125781       19.7304398662       16.0163621929
  C        17.2748523492       21.0480268224       16.2854505267
  N        17.5394609109        8.9099563595        5.1992201244
  C        17.2704117006       10.2275150699        5.4693311839
  N         5.1739427174        3.0517809510       16.0237832605
  C         5.4449426189        1.7342342659       16.2928624258
  N         5.1690173982       13.8717306719        5.2072245191
  C         5.4364836685       12.5540406895        5.4782713526
  N        17.5374478634        3.0463720531        6.7576027585
  C        17.2672354702        1.7287419131        6.4886379022
  N        17.5464237480       13.8651496208       17.5753058443
  C        17.2759473763       12.5477192664       17.3058534482
  N         5.1701699117       19.7361261097        6.7644561113
  C         5.4383088386       21.0538854397        6.4937651053
  N         5.1708970919        8.9164539471       17.5806137168
  C         5.4404243740       10.2338546810       17.3100809773
  N        19.6942592490        6.7579103821        5.2014961258
  C        21.0121069352        6.4903953314        5.4742998437
  N         8.8789540441        6.7615620083       16.0227189537
  C        10.1967835694        6.4898916425       16.2914919488
  N         3.0150216370        6.7621286968       17.5796638600
  C         1.6974348742        6.4916955839       17.3078750126
  N        13.8323579699        6.7579565527        6.7579527506
  C        12.5142180543        6.4889113045        6.4887369698
  N         3.0173346211       16.0239420564        5.2051576882
  C         1.6990222624       16.2920391484        5.4753320796
  N        13.8384043447       16.0196691921       16.0196664715
  C        12.5208279023       16.2906734229       16.2906855852
  N        19.7017905225       16.0188325395       17.5753590152
  C        21.0197521847       16.2895551032       17.3056898343
  N         8.8790080108       16.0226708777        6.7615695638
  C        10.1968359038       16.2914109553        6.4898402006
  N         6.7262058390       17.5822054653        3.0525168234
  C         6.4589509294       17.3107290773        1.7346891638
  N         6.7220642987        6.7645523982       13.8708467535
  C         6.4508815650        6.4956138889       12.5534983615
  N         6.7244830667        5.2075144914       19.7368561854
  C         6.4537645645        5.4772329156       21.0543504275
  N         6.7248423995       16.0232104707        8.9160725647
  C         6.4550635201       16.2927213181       10.2336146147
  N        15.9930954553       17.5747148338       19.7300681003
  C        16.2607100980       17.3031637008       21.0477671515
  N        15.9861027418        6.7568003335        8.9104428918
  C        16.2557376207        6.4865334397       10.2278678704
  N        15.9828013836        5.2008983512        3.0458708574
  C        16.2519650581        5.4719483148        1.7282510233
  N        15.9924614634       16.0183048109       13.8655183380
  C        16.2610364066       16.2888670629       12.5479568996
 Zn        14.7022802858       14.7251775666       14.7251755688
 Cl        13.4678447144       13.4937949487       13.4937925214
 Zn        14.6924131162        3.9068429132        3.9068540347
 Cl        13.4561363000        2.6764816708        2.6764708893
 Zn         3.8832794737       14.7309629043        3.9103554754
 Cl         2.6493151907       13.4988060187        2.6790587636
 Zn         3.8832543710        3.9103167597       14.7309798295
 Cl         2.6493007656        2.6790434701       13.4987843012
 Zn         8.0145537217        8.0553541299       14.7288555724
 Cl         9.2474305031        9.2872828367       13.4964521516
 Zn         8.0146420887       18.8755436986        3.9141504024
 Cl         9.2490037341       20.1080558606        2.6835785146
 Zn        18.8301621782        8.0500402073        3.9056863984
 Cl        20.0624359525        9.2827185093        2.6736420724
 Zn        18.8364101072       18.8694291272       14.7245752710
 Cl        20.0700073077       20.0992123938       13.4906707864
 Zn         8.0145793077       14.7288308597        8.0553911668
 Cl         9.2474451402       13.4964128725        9.2873019694
 Zn         8.0145982358        3.9140878772       18.8755662093
 Cl         9.2490460653        2.6835919151       20.1080641854
 Zn        18.8364079295       14.7245649883       18.8694286386
 Cl        20.0700148911       13.4906677306       20.0992146807
 Zn        18.8301600788        3.9056826567        8.0500438852
 Cl        20.0624491222        2.6736453147        9.2827153214
 Zn        14.6970487705        8.0516322013        8.0516436971
 Cl        13.4635003164        9.2835255348        9.2835160149
 Zn        14.7054207030       18.8700962230       18.8701023707
 Cl        13.4717217326       20.1019125484       20.1019120284
 Zn         3.8798966775        8.0557986874       18.8734724121
 Cl         2.6468031737        9.2901088792       20.1034959831
 Zn         3.8799383465       18.8734772878        8.0558548200
 Cl         2.6467635501       20.1034866660        9.2900921151
 Zn        14.7003553149       14.7252228942        8.0516458503
 Cl        13.4660287504       13.4944814746        9.2838773739
 Zn        14.7008573288        3.9050800205       18.8683387611
 Cl        13.4658969252        2.6728442762       20.0985016775
 Zn         3.8850688811       14.7310218024       18.8748981646
 Cl         2.6519392120       13.4988269926       20.1069867927
 Zn         3.8767337097        3.9126119100        8.0558647389
 Cl         2.6432787600        2.6826155611        9.2898578887
 Zn         8.0125423589        8.0555892202        8.0556309973
 Cl         9.2461371933        9.2874099182        9.2873896181
 Zn         8.0191375776       18.8741241849       18.8741363561
 Cl         9.2550823498       20.1048539611       20.1048578252
 Zn        18.8326286539        8.0503031390       18.8714064497
 Cl        20.0655771834        9.2831703592       20.1027691760
 Zn        18.8326328080       18.8713965378        8.0503094144
 Cl        20.0655908315       20.1027719213        9.2831616204
 Zn        14.7003529064        8.0516433184       14.7252258737
 Cl        13.4660299200        9.2838829216       13.4944938034
 Zn        14.7008626941       18.8683414826        3.9050879056
 Cl        13.4659060933       20.0984947645        2.6728304119
 Zn         3.8767332357        8.0557956583        3.9127026007
 Cl         2.6433603998        9.2898272791        2.6826421340
 Zn         3.8850587898       18.8749096087       14.7310170549
 Cl         2.6519274886       20.1069923917       13.4988192802
 Zn         8.0159138799       14.7292664773       14.7292703092
 Cl         9.2488710116       13.4971063173       13.4971102862
 Zn         8.0099905438        3.9115498819        3.9116139273
 Cl         9.2431521052        2.6796208278        2.6796015727
 Zn        18.8346775380       14.7244371852        3.9077017948
 Cl        20.0678495040       13.4902502041        2.6778809381
 Zn        18.8346777180        3.9076913986       14.7244311558
 Cl        20.0678540264        2.6778783230       13.4902396915
 Zn         5.9488283105        5.9889261991       16.8071917450
 Zn        16.7707103349       16.7961333367       16.7961209539
 Zn        16.7648703036        5.9780199445        5.9781139148
 Zn         5.9489489400       16.8072262434        5.9891255749
 Zn         5.9456645567        5.9889122404        5.9891451382
 Zn        16.7683784627       16.7963332638        5.9786786622
 Zn         5.9513308095       16.8073944014       16.8073883714
 Zn        16.7683824868        5.9786058240       16.7963647382
  N         3.7624523029        5.9836407849       16.8027698729
  N        14.5776580015        5.9792897860        5.9793988374
  N        18.9555773208       16.7968492656       16.7968606625
  N         8.1326806090       16.8025119326        5.9850742894
  N        18.9479848620        5.9782769154        5.9782702737
  N         8.1326307095        5.9849989935       16.8025156177
  N         3.7624688352       16.8027782177        5.9837014928
  N        14.5856527546       16.7974633244       16.7974510589
  N        16.7604551129        3.7926945791        5.9787608111
  N        16.7699771334       14.6119104560       16.7964862700
  N        16.7702253264       18.9835300569       16.7962567474
  N        16.7626087230        8.1635403383        5.9780161449
  N         5.9484940383       18.9900180285        5.9868257110
  N         5.9480511888        8.1698311998       16.8023435800
  N         5.9490905919        3.7989568888       16.8036714262
  N         5.9466886002       14.6180797534        5.9851693387
  N         5.9492782881       16.8035200626        3.7989909411
  N         5.9466954330        5.9850929881       14.6181442228
  N        16.7702295683       16.7962471221       18.9835287582
  N        16.7625906789        5.9779819175        8.1635611255
  N         5.9479998720        5.9863338841       18.9900271787
  N         5.9483597944       16.8026023257        8.1699109214
  N        16.7604975525        5.9787071507        3.7927120954
  N        16.7699676217       16.7965027800       14.6119148851
  N         5.9438628757        3.7990513395        5.9853408012
  N         5.9509078378       14.6181797080       16.8030092384
  N        16.7656085374       18.9836687730        5.9783447111
  N        16.7665617796        8.1636818892       16.7980754309
  N         5.9525086898       18.9899051412       16.8029503369
  N         5.9429929710        8.1698926210        5.9860176819
  N        16.7671052379        3.7925965843       16.7954182286
  N        16.7670747179       14.6118281759        5.9796770090
  N         3.7658866428       16.8039059567       16.8038909946
  N        14.5824519017       16.7964124114        5.9780702410
  N        18.9522723223       16.7974633532        5.9790598172
  N         8.1357597967       16.8020671549       16.8020664772
  N        18.9522592996        5.9790161124       16.7974959302
  N         8.1281117910        5.9840973423        5.9841909787
  N         3.7579799234        5.9858103177        5.9859046497
  N        14.5824323668        5.9780349747       16.7963698058
  N        16.7656404923        5.9782921055       18.9836916620
  N        16.7665575518       16.7980700823        8.1636855373
  N        16.7670944266       16.7954208896        3.7926192871
  N        16.7670474421        5.9796323122       14.6118283423
  N         5.9435408085        5.9849424671        3.7991391006
  N         5.9510426022       16.8031699860       14.6181980461
  N         5.9525800184       16.8028742972       18.9899324622
  N         5.9431069895        5.9858475957        8.1699642305
  C        11.3591296928       15.7414724097       15.7414886263
  H        11.3577474749       14.9659095184       14.9659171516
  C        11.3511898726        4.9235974100        4.9234025514
  H        11.3496958466        4.1479927354        4.1479087623
  C         0.5390495503       15.7402989652        4.9246905061
  H         0.5406656804       14.9643736041        4.1495433375
  C         0.5390201781        4.9247379869       15.7402237227
  H         0.5406455763        4.1495590699       14.9643396215
  C        11.3576313681        7.0386779648       15.7400840214
  H        11.3577773272        7.8141036899       14.9644105348
  C        11.3573895699       17.8570986777        4.9226948480
  H        11.3571453468       18.6329357559        4.1475036459
  C         0.5329153996        7.0424792391        4.9260547406
  H         0.5329140380        7.8184057923        4.1508818391
  C         0.5407067520       17.8567741447       15.7404540891
  H         0.5407548287       18.6321898797       14.9647737755
  C        11.3576632279       15.7399941716        7.0386143177
  H        11.3578100110       14.9643623572        7.8140872795
  C        11.3573822298        4.9227841328       17.8571692117
  H        11.3571491845        4.1475251138       18.6329887865
  C         0.5407221647       15.7404541721       17.8567723367
  H         0.5407675154       14.9647736677       18.6321869569
  C         0.5328896064        4.9260388767        7.0424927900
  H         0.5328765688        4.1508512821        7.8184324574
  C        11.3544474310        7.0401972260        7.0400033865
  H        11.3558090088        7.8156702324        7.8155891680
  C        11.3622785735       17.8579113645       17.8579263809
  H        11.3636594064       18.6334463093       18.6334531452
  C         0.5356229335        7.0409887908       17.8566988591
  H         0.5340148407        7.8167748920       18.6320280727
  C         0.5356416201       17.8567724904        7.0409345714
  H         0.5340327377       18.6320579567        7.8167477608
  C        15.7102510164       11.3881417711       15.7379675876
  H        14.9354941357       11.3884338987       14.9615628980
  C        15.7027202179        0.5674591370        4.9212537870
  H        14.9274953946        0.5666019968        4.1453382713
  C         4.8853019948       11.3942580054        4.9274674163
  H         4.1105699377       11.3947622385        4.1510851945
  C         4.8962419027        0.5737877068       15.7410654951
  H         4.1218100927        0.5733397963       14.9643272277
  C        15.7063208110       11.3881832203        7.0377842443
  H        14.9313752838       11.3886818940        7.8139787480
  C        15.7098833126        0.5677190661       17.8539041228
  H        14.9350885021        0.5673575445       18.6302880278
  C         4.8910641784       11.3941571130       17.8614260972
  H         4.1165427514       11.3944786097       18.6380371262
  C         4.8874278407        0.5738117913        7.0446764269
  H         4.1131458843        0.5731974158        7.8215484261
  C         7.0054583672       11.3934010165       15.7414589176
  H         7.7802582457       11.3930552452       14.9650917158
  C         7.0023616224        0.5749036840        4.9256033060
  H         7.7778731769        0.5755009383        4.1500250429
  C        17.8213508182       11.3872150423        4.9184338413
  H        18.5962677346       11.3867614937        4.1422202330
  C        17.8235930633        0.5684937037       15.7336135959
  H        18.5978316728        0.5688913192       14.9567619613
  C         7.0001900472       11.3933093529        7.0470627591
  H         7.7751429955       11.3928577397        7.8232246322
  C         7.0098312805        0.5747311828       17.8614668615
  H         7.7843944328        0.5751878533       18.6380109066
  C        17.8251900220       11.3875066630       17.8574320187
  H        18.6002543372       11.3872467220       18.6334922582
  C        17.8178281506        0.5690665952        7.0401112418
  H        18.5926250259        0.5699359699        7.8164359054
  C        15.7102674301       15.7379458121       11.3881485800
  H        14.9355044156       14.9615508995       11.3884400191
  C        15.7026603966        4.9213095010        0.5674762865
  H        14.9274706694        4.1453542036        0.5666147626
  C         4.8961666399       15.7411624739        0.5738257287
  H         4.1217811837       14.9643624810        0.5733637117
  C         4.8851045526        4.9276382187       11.3943117533
  H         4.1104713193        4.1511238350       11.3947808412
  C         7.0052985881       15.7412820777       11.3934446164
  H         7.7802098547       14.9650255619       11.3930949612
  C         7.0027957335        4.9260464604        0.5749472958
  H         7.7780692350        4.1501884446        0.5755024779
  C        17.8236030023       15.7336292494        0.5685078545
  H        18.5978421095       14.9567679695        0.5689020553
  C        17.8213971506        4.9184666118       11.3872259171
  H        18.5962865980        4.1422369000       11.3867702570
  C        15.7063623642        7.0378221355       11.3881954979
  H        14.9313946810        7.8139938094       11.3886934491
  C        15.7098953425       17.8539114386        0.5677148846
  H        14.9350962694       18.6302891864        0.5673478927
  C         4.8878930499        7.0450911923        0.5738726636
  H         4.1133460956        7.8217036296        0.5732339405
  C         4.8908820744       17.8612629312       11.3941831843
  H         4.1164862525       18.6379734292       11.3944871702
  C         6.9999954470        7.0472211178       11.3933624027
  H         7.7750681126        7.8232722292       11.3928701029
  C         7.0097429275       17.8615619442        0.5747618546
  H         7.7843519262       18.6380387154        0.5752070329
  C        17.8177653545        7.0401675147        0.5690760496
  H        18.5925945593        7.8164535155        0.5699419637
  C        17.8252063125       17.8574187892       11.3875124737
  H        18.6002624689       18.6334893492       11.3872466461
 Xe         1.9410864182       10.6428618737       10.6428637396
