     409
 i =     150, E =    -5183.7358723368
  N         2.8220635710        5.1981651342       15.9962991275
  C         1.5050255455        5.4686553760       16.2667163364
  N        13.6269787824        5.1110527492        5.1110507490
  C        12.3107859227        5.3880525179        5.3880506776
  N        19.5182397792       17.5569521686       16.0018841869
  C        20.8356289768       17.2876000437       16.2717362409
  N         8.6709474426       17.5957489618        5.1601193369
  C         9.9937646683       17.3379521481        5.4156722068
  N        19.5002823237        5.2009642500        6.7567800436
  C        20.8178054251        5.4721943899        6.4880861237
  N         8.6709491393        5.1601166887       17.5957468463
  C         9.9937712582        5.4156701813       17.3379516520
  N         2.8235351338       17.5481940012        6.7574744923
  C         1.5060617273       17.2808680628        6.4863722208
  N        13.6427958718       17.6274524095       17.6274521053
  C        12.3266158059       17.3515991255       17.3515998443
  N        15.8290997370        3.0289738417        5.1752870412
  C        16.0957558452        1.7142660582        5.4537327393
  N        15.7868109477       13.8571092875       16.0173131090
  C        16.0559334812       12.5370581285       16.2839218593
  N        15.8377611971       19.7210478644       17.5728728053
  C        16.1021577147       21.0362903449       17.2939581401
  N        15.7690867895        8.8925811814        6.7309900627
  C        16.0390802132       10.2135570990        6.4705405796
  N         6.4994940352       19.7203112634        5.1901596852
  C         6.2300603613       21.0360467786        5.4642931989
  N         6.5591637367        8.8939513755       16.0093788630
  C         6.2912024193       10.2137650460       16.2767080866
  N         6.5043114900        3.0325265366       17.5750267242
  C         6.2385302236        1.7159189667       17.2999579278
  N         6.5527230102       13.8551233796        6.7322229893
  C         6.2801086736       12.5359641980        6.4682162332
  N         4.9650989858       16.0035013257        3.0337163358
  C         5.2329058802       16.2738998347        1.7157605829
  N         4.9820725624        5.1907999743       13.8518250780
  C         5.2547695088        5.4614839325       12.5351650236
  N        17.3738100739       15.9974758156       19.7176034125
  C        17.1050009135       16.2650912000       21.0356577477
  N        17.3407245969        5.1922165703        8.9007689308
  C        17.0667999399        5.4662977103       10.2169628379
  N         4.9604355135        6.7614078717       19.7150478054
  C         5.2246503259        6.4904893320       21.0340230672
  N         4.9882210246       17.5499221270        8.8999935118
  C         5.2656585935       17.2831842100       10.2161697715
  N        17.3623664234        6.7533769215        3.0349156955
  C        17.0969818096        6.4840196293        1.7166684878
  N        17.3588468218       17.5556495615       13.8545170883
  C        17.0841566780       17.2877712327       12.5374679254
  N         4.9545436309        3.0337400491        6.7557587525
  C         5.2221190906        1.7152235553        6.4872994770
  N         4.9946252981       13.8528260592       17.5553451452
  C         5.2681823234       12.5360756296       17.2861766595
  N        17.3682388136       19.7202845665        6.7503086895
  C        17.0994238577       21.0379091248        6.4821549289
  N        17.3589019628        8.9007052216       17.5700641411
  C        17.0842576048       10.2162489694       17.2948477181
  N         4.9734231411       19.7162180192       15.9995442962
  C         5.2366886677       21.0350077134       16.2715836343
  N         4.9787787383        8.8988338250        5.1946013658
  C         5.2536992456       10.2151209194        5.4637538156
  N        17.3676956296        3.0337855336       15.9969538546
  C        17.1020903124        1.7150573778       16.2645766858
  N        17.3444869927       13.8559881024        5.2005282147
  C        17.0688024080       12.5390710633        5.4704148068
  N         2.8323904163       15.9982501617       17.5530222703
  C         1.5149876007       16.2700233584       17.2858677700
  N        13.6517052126       16.0793210378        6.6657168965
  C        12.3300792591       16.3402717801        6.4064658432
  N        19.5075760828       16.0021719101        5.1982672091
  C        20.8253582454       16.2696255427        5.4685871055
  N         8.7044411674       16.0356355017       16.0356369004
  C        10.0174132400       16.3183149371       16.3183158670
  N        19.5095025333        6.7531941277       17.5584186449
  C        20.8264670769        6.4845329642       17.2854471990
  N         8.6901351713        6.7084550368        6.7084562747
  C        10.0027362744        6.4245638392        6.4245640110
  N         2.8154632560        6.7576716332        5.2013366622
  C         1.4981011032        6.4884930610        5.4724424929
  N        13.6517032269        6.6657197814       16.0793152660
  C        12.3300752776        6.4064693755       16.3402686627
  N        15.8338483329        5.1724443485       19.7235790916
  C        16.0978636259        5.4520680706       21.0386738780
  N        15.7878078333       16.0315759560        8.8898438520
  C        16.0562169282       16.2909184417       10.2113223631
  N        15.8327164641       17.5725649044        3.0270214930
  C        16.0996025187       17.2935910956        1.7122724416
  N        15.7719141561        6.7392039466       13.8607435935
  C        16.0408214578        6.4746733194       12.5403087051
  N         6.4933161888        5.1837406091        3.0301017945
  C         6.2273369603        5.4608825634        1.7141355082
  N         6.5648044536       16.0134916599       13.8555837374
  C         6.2933462074       16.2792537952       12.5365696077
  N         6.5131906742       17.5700906283       19.7212354005
  C         6.2426203224       17.2973565860       21.0372797633
  N         6.5498204358        6.7350827649        8.8932477032
  C         6.2792869948        6.4701835043       10.2130261472
  N        19.5095064293       17.5584244880        6.7531964796
  C        20.8264843368       17.2854542304        6.4845384451
  N         8.6806758409       17.5922297267       17.5922301231
  C        10.0029656833       17.3337738084       17.3337739954
  N         2.8154630855        5.2013355919        6.7576710995
  C         1.4980959276        5.4724416789        6.4884924401
  N        13.6335618944        5.1172781924       17.6373254735
  C        12.3176029394        5.3936377425       17.3590862717
  N         2.8323900112       17.5530211911       15.9982507405
  C         1.5149859804       17.2858648106       16.2700254058
  N        13.6335621190       17.6373274360        5.1172727651
  C        12.3175979902       17.3590892526        5.3936318690
  N        19.5075728174        5.1982652763       16.0021668810
  C        20.8253670185        5.4685855186       16.2696215119
  N         8.6638680223        5.1531191185        5.1531231639
  C         9.9867489110        5.4094506780        5.4094519106
  N         6.5131885707       19.7212388432       17.5700928322
  C         6.2426209074       21.0372837880       17.2973604773
  N         6.5498191114        8.8932454837        6.7350846889
  C         6.2792862676       10.2130257868        6.4701833885
  N         6.4933153946        3.0300959970        5.1837455744
  C         6.2273348082        1.7141332612        5.4608839067
  N         6.5648048901       13.8555843301       16.0134906134
  C         6.2933449673       12.5365685204       16.2792527641
  N        15.8327099460        3.0270195731       17.5725597305
  C        16.0996029346        1.7122806712       17.2935852692
  N        15.7719140082       13.8607505109        6.7391994078
  C        16.0408234729       12.5403059985        6.4746820051
  N        15.8338477164       19.7235823279        5.1724459442
  C        16.0978588119       21.0386812914        5.4520645249
  N        15.7877985327        8.8898453334       16.0315707971
  C        16.0562104958       10.2113253497       16.2909152704
  N        17.3682354566        6.7503113930       19.7202788649
  C        17.0994197187        6.4821550966       21.0379018300
  N        17.3589134370       17.5700693191        8.9007079364
  C        17.0842644785       17.2948493255       10.2162527713
  N         4.9545439977        6.7557536460        3.0337442630
  C         5.2221259468        6.4872922195        1.7152376523
  N         4.9946272411       17.5553486945       13.8528257126
  C         5.2681806540       17.2861837328       12.5360678454
  N        17.3676988719       15.9969584720        3.0337876304
  C        17.1020942369       16.2645757920        1.7150664455
  N        17.3444913757        5.2005340065       13.8559841923
  C        17.0687982067        5.4704114588       12.5390600863
  N         4.9734227690       15.9995451548       19.7162151516
  C         5.2366917977       16.2715869044       21.0350005036
  N         4.9787789613        5.1946007104        8.8988355990
  C         5.2536979087        5.4637531725       10.2151266230
  N        17.3738083683       19.7175987104       15.9974761814
  C        17.1049974459       21.0356523869       16.2650961432
  N        17.3407262059        8.9007719024        5.1922203938
  C        17.0668108645       10.2169762807        5.4663038680
  N         4.9650962320        3.0337178081       16.0034999964
  C         5.2329024925        1.7157699265       16.2738969322
  N         4.9820727074       13.8518237104        5.1908016216
  C         5.2547704104       12.5351591616        5.4614844728
  N        17.3623658137        3.0349185575        6.7533755471
  C        17.0969780916        1.7166818262        6.4840139230
  N        17.3588451945       13.8545149664       17.5556546432
  C        17.0841539357       12.5374655655       17.2877735461
  N         4.9604316216       19.7150435338        6.7614083448
  C         5.2246451437       21.0340147932        6.4904903360
  N         4.9882198978        8.8999940758       17.5499230068
  C         5.2656555849       10.2161805457       17.2831845909
  N        19.5002830483        6.7567808691        5.2009663170
  C        20.8178143976        6.4880858275        5.4721968946
  N         8.6971530607        6.7103055124       16.0344793451
  C        10.0098708781        6.4274673147       16.3192299206
  N         2.8235334038        6.7574770072       17.5481933154
  C         1.5060472738        6.4863722856       17.2808661854
  N        13.6442312472        6.6645449396        6.6645462152
  C        12.3227824913        6.4039318816        6.4039314226
  N         2.8220663971       15.9963014272        5.1981631854
  C         1.5050099711       16.2667123429        5.4686486842
  N        13.6589703301       16.0740177374       16.0740165050
  C        12.3376848826       16.3357450390       16.3357458284
  N        19.5182398730       16.0018833441       17.5569572646
  C        20.8356246537       16.2717378372       17.2876011270
  N         8.6971543927       16.0344793401        6.7103078139
  C        10.0098727759       16.3192340458        6.4274648437
  N         6.5043121755       17.5750302069        3.0325242487
  C         6.2385306196       17.2999588077        1.7159232064
  N         6.5527225070        6.7322199694       13.8551251403
  C         6.2801062678        6.4682135502       12.5359657405
  N         6.4995001600        5.1901602980       19.7203144426
  C         6.2300675884        5.4642921671       21.0360488165
  N         6.5591649602       16.0093780934        8.8939512515
  C         6.2912017256       16.2767104198       10.2137702615
  N        15.8377630256       17.5728714522       19.7210528282
  C        16.1021548267       17.2939599695       21.0362974987
  N        15.7690865595        6.7309886973        8.8925758049
  C        16.0390720350        6.4705328475       10.2135585750
  N        15.8291015835        5.1752853738        3.0289697137
  C        16.0957556786        5.4537300590        1.7142639169
  N        15.7868102349       16.0173111457       13.8571076638
  C        16.0559369674       16.2839234928       12.5370588772
 Zn        14.4972904695       14.7811726293       14.7811777981
 Cl        13.0152512448       13.7060131757       13.7060237243
 Zn        14.5439092693        3.8444770338        3.8444792018
 Cl        13.3871560694        2.5771257282        2.5771359448
 Zn         3.6822024117       14.7089659085        3.9005442942
 Cl         2.4440717974       13.4737140612        2.6764198665
 Zn         3.6822000211        3.9005419094       14.7089597397
 Cl         2.4440760235        2.6764223867       13.4737007898
 Zn         7.8529648281        8.0096204909       14.7284046933
 Cl         9.0821974695        9.2410845273       13.4914382700
 Zn         7.7882945105       18.8804078311        3.8856306119
 Cl         8.9986304566       20.1281226392        2.6454698883
 Zn        18.6463386586        8.0490533920        3.9027139815
 Cl        19.8728996538        9.2959017135        2.6805681845
 Zn        18.6603839305       18.8446059803       14.7089817683
 Cl        19.8867530376       20.0690039252       13.4622431789
 Zn         7.8529659617       14.7284001891        8.0096227684
 Cl         9.0822000737       13.4914374780        9.2410928757
 Zn         7.7882934211        3.8856277104       18.8804067559
 Cl         8.9986269049        2.6454566666       20.1281145134
 Zn        18.6603836682       14.7089753963       18.8446192929
 Cl        19.8867525630       13.4622306611       20.0690084039
 Zn        18.6463416917        3.9027110774        8.0490529066
 Cl        19.8729046757        2.6805724344        9.2959020996
 Zn        14.4807555128        7.9549072114        7.9549090628
 Cl        12.9836534851        9.0199650628        9.0199750118
 Zn        14.5496555582       18.8941874784       18.8941981610
 Cl        13.3877621097       20.1597870893       20.1598063095
 Zn         3.6821537691        8.0556727758       18.8354443421
 Cl         2.4420304188        9.2947342294       20.0541371246
 Zn         3.6821558320       18.8354459344        8.0556758519
 Cl         2.4420333217       20.0541459108        9.2947264962
 Zn        14.4912605814       14.8041906720        7.9669741591
 Cl        13.0095908609       13.8167267838        9.1266319847
 Zn        14.5468144227        3.8451808624       18.8986337324
 Cl        13.3857993479        2.5793488044       20.1639511110
 Zn         3.6907560923       14.7071159042       18.8415714614
 Cl         2.4542166497       13.4706613940       20.0669170422
 Zn         3.6761907022        3.9053319372        8.0520745056
 Cl         2.4350139168        2.6881393171        9.2909399756
 Zn         7.8486170280        8.0102730102        8.0102745267
 Cl         9.0788232652        9.2443388779        9.2443352792
 Zn         7.7976464418       18.8758946092       18.8758921618
 Cl         9.0131590574       20.1171138156       20.1171044858
 Zn        18.6583989729        8.0457225393       18.8584962649
 Cl        19.8890865048        9.2822428698       20.0868107641
 Zn        18.6584084043       18.8585127298        8.0457247203
 Cl        19.8890996146       20.0868158148        9.2822558108
 Zn        14.4912555471        7.9669740217       14.8041786604
 Cl        13.0095818224        9.1266502897       13.8167459916
 Zn        14.5468190150       18.8986357104        3.8451782939
 Cl        13.3858110921       20.1639527703        2.5793379178
 Zn         3.6761891437        8.0520739373        3.9053331300
 Cl         2.4350163896        9.2909408643        2.6881400707
 Zn         3.6907553985       18.8415716918       14.7071147387
 Cl         2.4542039083       20.0669100378       13.4706646052
 Zn         7.8602098089       14.7309490033       14.7309508815
 Cl         9.0880095277       13.4965087083       13.4965075982
 Zn         7.7797800046        3.8761737465        3.8761782328
 Cl         8.9852696665        2.6300187985        2.6300122349
 Zn        18.6510998486       14.7089070613        3.9068761552
 Cl        19.8760828479       13.4521672196        2.6922681499
 Zn        18.6510927379        3.9068792569       14.7089073523
 Cl        19.8760765246        2.6922654361       13.4521634935
 Zn         5.7506307306        5.9618188950       16.7809653405
 Zn        16.5878920042       16.8050025300       16.8049859340
 Zn        16.5676819877        5.9471776537        5.9471767950
 Zn         5.7506258508       16.7809690604        5.9618186731
 Zn         5.7419450145        5.9605807432        5.9605863543
 Zn        16.5777428773       16.8140181901        5.9495791331
 Zn         5.7705186746       16.7816881044       16.7816876473
 Zn        16.5777362317        5.9495807734       16.8140162097
  N         3.5690841726        5.9780302956       16.7714237994
  N        14.3816193348        5.8858304377        5.8858314068
  N        18.7713844976       16.7790188079       16.7790193120
  N         7.9374479742       16.8084898389        5.9418762046
  N        18.7534195711        5.9781155253        5.9781068887
  N         7.9374436809        5.9418699125       16.8084914459
  N         3.5690893346       16.7714264067        5.9780281792
  N        14.3971697543       16.8525621720       16.8525606741
  N        16.5952508586        3.7780181738        5.9610348792
  N        16.5743050073       14.6027590427       16.7878427915
  N        16.6068534666       18.9735335237       16.7887781072
  N        16.5562367247        8.1498577213        5.9571720631
  N         5.7319090303       18.9708173478        5.9744667270
  N         5.7705892283        8.1504933548       16.7796030654
  N         5.7346382682        3.7797282720       16.7904629252
  N         5.7674038021       14.5996542457        5.9597897420
  N         5.7346378045       16.7904630970        3.7797275443
  N         5.7674064458        5.9597889656       14.5996533819
  N        16.6068524866       16.7887825674       18.9735343717
  N        16.5562399853        5.9571720114        8.1498507878
  N         5.7319087654        5.9744713320       18.9708174585
  N         5.7705945685       16.7795970540        8.1504982952
  N        16.5952542203        5.9610359843        3.7780237428
  N        16.5743068869       16.7878422033       14.6027555853
  N         5.7238909128        3.7785534400        5.9672368166
  N         5.7790025439       14.6004143471       16.7851338189
  N        16.6022313211       18.9764011498        5.9577435486
  N        16.5746131980        8.1485980918       16.8055672915
  N         5.7457833738       18.9718594437       16.7852372078
  N         5.7627335156        8.1495526602        5.9635203072
  N        16.5998401955        3.7767183282       16.7885283815
  N        16.5603144569       14.6054458818        5.9672998023
  N         3.5792774980       16.7742493651       16.7742493403
  N        14.3888785253       16.8609510232        5.8895849435
  N        18.7617393548       16.7817401987        5.9752674441
  N         7.9465693188       16.8078447637       16.8078459638
  N        18.7617344057        5.9752659116       16.7817347481
  N         7.9301718457        5.9374834364        5.9374869727
  N         3.5614880476        5.9789790841        5.9789766980
  N        14.3888739739        5.8895882084       16.8609474688
  N        16.6022298860        5.9577438359       18.9764058086
  N        16.5746261841       16.8055752041        8.1485983047
  N        16.5998428986       16.7885408833        3.7767211536
  N        16.5603209218        5.9673054630       14.6054380045
  N         5.7238851754        5.9672359706        3.7785531104
  N         5.7790081239       16.7851306920       14.6004203869
  N         5.7457826038       16.7852352018       18.9718596837
  N         5.7627363149        5.9635195069        8.1495521524
  C        11.1844661641       15.7777957057       15.7777970576
  H        11.2026706959       15.0026183405       15.0026207630
  C        11.1389077975        4.8487770282        4.8487760157
  H        11.1212019780        4.0736629950        4.0736615564
  C         0.3445077232       15.7176596255        4.9176779694
  H         0.3440800728       14.9422053428        4.1420193854
  C         0.3444726114        4.9176740953       15.7176529629
  H         0.3440634224        4.1420213410       14.9422034519
  C        11.1784297540        6.9646795311       15.7789366026
  H        11.1989440633        7.7404173774       15.0044420015
  C        11.1457450832       17.9003735667        4.8565483221
  H        11.1283547983       18.6781156311        4.0840207467
  C         0.3378639560        7.0392376695        4.9221828999
  H         0.3382911391        7.8151568657        4.1470181340
  C         0.3553345159       17.8378381656       15.7203467416
  H         0.3557977211       18.6130242305       14.9443770725
  C        11.1784270780       15.7789374210        6.9646789831
  H        11.1989429543       15.0044452165        7.7404132888
  C        11.1457362560        4.8565509691       17.9003718498
  H        11.1283495684        4.0840229397       18.6781144832
  C         0.3553430667       15.7203448037       17.8378439748
  H         0.3557977945       14.9443771507       18.6130305961
  C         0.3378769462        4.9221797011        7.0392366566
  H         0.3383031080        4.1470100332        7.8151576292
  C        11.1708269510        6.9633657118        6.9633649114
  H        11.1912715678        7.7384404511        7.7384390176
  C        11.1565778641       17.8927388381       17.8927387378
  H        11.1420278046       18.6679568999       18.6679553291
  C         0.3468984427        7.0368212298       17.8332857123
  H         0.3482933774        7.8132058818       18.6080237002
  C         0.3468768363       17.8332840829        7.0368186507
  H         0.3482845163       18.6080276581        7.8132091532
  C        15.4975899923       11.3725695489       15.7468864576
  H        14.7025046152       11.3679329657       14.9925531688
  C        15.5527167815        0.5563582443        4.8941819830
  H        14.7898059415        0.5560776892        4.1056761002
  C         4.6987318770       11.3748934968        4.9176148496
  H         3.9163260452       11.3743469062        4.1489203848
  C         4.6895506930        0.5549910894       15.7167526102
  H         3.9212533718        0.5546480840       14.9341805879
  C        15.4829522262       11.3763979583        7.0136686124
  H        14.6913005416       11.3736680356        7.7710871737
  C        15.5561645432        0.5537886837       17.8516441035
  H        14.7922975545        0.5530988073       18.6392123768
  C         4.7119401207       11.3760601746       17.8304108421
  H         3.9296122427       11.3757721007       18.5992919260
  C         4.6786311537        0.5547408451        7.0454328924
  H         3.9107584506        0.5551504483        7.8283303975
  C         6.8475724940       11.3751871475       15.7328990735
  H         7.6292332625       11.3756774212       14.9635704092
  C         6.7742879639        0.5549560749        4.9066418304
  H         7.5422602528        0.5546694958        4.1234419196
  C        17.6232721344       11.3784435442        4.9248978359
  H        18.4059659987       11.3792032141        4.1561314344
  C        17.6468468460        0.5559207583       15.7060013275
  H        18.4132003736        0.5564428506       14.9216319276
  C         6.8344652556       11.3747088635        7.0149528080
  H         7.6160862554       11.3754589908        7.7843671576
  C         6.7861222474        0.5569556394       17.8545650007
  H         7.5546163657        0.5574881958       18.6372655839
  C        17.6398401970       11.3784782000       17.8351835475
  H        18.4221881045       11.3812953510       18.6040854498
  C        17.6411001291        0.5573967190        7.0424920043
  H        18.4068384019        0.5572953884        7.8274636128
  C        15.4975921079       15.7468863518       11.3725653913
  H        14.7025096004       14.9925527221       11.3679312120
  C        15.5527182169        4.8941778475        0.5563578438
  H        14.7898109610        4.1056695722        0.5560713275
  C         4.6895496426       15.7167528506        0.5549999107
  H         3.9212551906       14.9341869775        0.5546533349
  C         4.6987297527        4.9176148455       11.3748886224
  H         3.9163213723        4.1489195988       11.3743457738
  C         6.8475718278       15.7329003925       11.3751793319
  H         7.6292298028       14.9635719354       11.3756699402
  C         6.7742923140        4.9066423655        0.5549650075
  H         7.5422659055        4.1234415258        0.5546823215
  C        17.6468452849       15.7060018786        0.5559151830
  H        18.4132058085       14.9216250844        0.5564439951
  C        17.6232701032        4.9248891732       11.3784594455
  H        18.4059669674        4.1561351258       11.3792043982
  C        15.4829425606        7.0136641593       11.3763728400
  H        14.6912997366        7.7710858849       11.3736491836
  C        15.5561739877       17.8516364465        0.5537994120
  H        14.7923023340       18.6392124697        0.5531103276
  C         4.6786315458        7.0454337004        0.5547345216
  H         3.9107640283        7.8283230827        0.5551540133
  C         4.7119428846       17.8304137125       11.3760756201
  H         3.9296121666       18.5992988083       11.3757775844
  C         6.8344658324        7.0149534793       11.3747125907
  H         7.6160851404        7.7843666854       11.3754697710
  C         6.7861292644       17.8545695979        0.5569451557
  H         7.5546204182       18.6372651166        0.5574725250
  C        17.6410954097        7.0424935353        0.5574047774
  H        18.4068319617        7.8274675519        0.5572896057
  C        17.6398476123       17.8351835979       11.3784838728
  H        18.4221949632       18.6040807675       11.3813017982
 Xe        12.6094238224       11.3562806699       11.3562868515
