     409
 i =     150, E =    -5183.7583461973
  N         2.9227621915        5.1975820687       16.0079045606
  C         1.6046161345        5.4669916026       16.2765992146
  N        13.7391089811        5.1809327028        5.1809403927
  C        12.4209867951        5.4497821945        5.4498072410
  N        19.6120885239       17.5609143305       16.0055317039
  C        20.9299249739       17.2936792115       16.2776503137
  N         8.7838986353       17.5822710443        5.1891070016
  C        10.1021997442       17.3109218048        5.4571598475
  N        19.6005640203        5.1929510631        6.7491130342
  C        20.9184668844        5.4673694617        6.4833936133
  N         8.7838921402        5.1892482875       17.5821850257
  C        10.1021513720        5.4573162193       17.3108047487
  N         2.9206057204       17.5613426027        6.7562319222
  C         1.6030890862       17.2913202578        6.4843719554
  N        13.7479010269       17.5692748502       17.5693957429
  C        12.4294328818       17.3016136004       17.3016035546
  N        15.8967574036        3.0308538017        5.1857885031
  C        16.1657836083        1.7135966755        5.4578178041
  N        15.8937371033       13.8549975401       16.0077332561
  C        16.1628921194       12.5371346153       16.2764476516
  N        15.9041815001       19.7166671911       17.5634065159
  C        16.1728301681       21.0340997404       17.2920417570
  N        15.8863043519        8.8969600473        6.7414534258
  C        16.1567800881       10.2149801359        6.4730380340
  N         6.6179218710       19.7254934976        5.1987776742
  C         6.3488126750       21.0425585329        5.4715412794
  N         6.6423361316        8.9065890500       16.0077590981
  C         6.3714751860       10.2241147988       16.2762974246
  N         6.6249395152        3.0422966356       17.5718573501
  C         6.3588696343        1.7244942117       17.2993933507
  N         6.6434432513       13.8604251098        6.7569804579
  C         6.3716648558       12.5428888268        6.4897392929
  N         5.0774192268       16.0082072589        3.0408953369
  C         5.3480372081       16.2784672990        1.7233436454
  N         5.0833537723        5.2050495155       13.8598467581
  C         5.3523476754        5.4771490953       12.5426253947
  N        17.4573172266       16.0049907078       19.7162469736
  C        17.1871808504       16.2743796905       21.0342234753
  N        17.4429648486        5.1875749013        8.8975741336
  C        17.1737659468        5.4581666106       10.2150141458
  N         5.0707698206        6.7629735475       19.7226942189
  C         5.3384848267        6.4933712672       21.0413284140
  N         5.0806863477       17.5572746033        8.9068254920
  C         5.3522750997       17.2890913828       10.2241803551
  N        17.4481929640        6.7457319782        3.0322906354
  C        17.1788435081        6.4767186319        1.7142789305
  N        17.4536412358       17.5593547740       13.8533837955
  C        17.1814975864       17.2899052049       12.5361139939
  N         5.0679492118        3.0413417701        6.7612420534
  C         5.3372754246        1.7230755062        6.4922876141
  N         5.0843365880       13.8612892831       17.5634012504
  C         5.3534235346       12.5440451265       17.2916453023
  N        17.4490554560       19.7154616730        6.7475077774
  C        17.1795110187       21.0333914201        6.4776859350
  N        17.4467720441        8.8983063464       17.5585774649
  C        17.1778420366       10.2159603196       17.2891669429
  N         5.0830498909       19.7244927023       16.0091266049
  C         5.3510045698       21.0426330361       16.2789704957
  N         5.0808771927        8.9058490049        5.2074418981
  C         5.3516813990       10.2229225307        5.4780519484
  N        17.4530744716        3.0332993745       16.0046689210
  C        17.1847628248        1.7152612768       16.2744529061
  N        17.4478872428       13.8525732640        5.1890559884
  C        17.1764060683       12.5352492906        5.4587209833
  N         2.9284012358       16.0132880750       17.5691907351
  C         1.6107498219       16.2817229871       17.2976262593
  N        13.7390887181       16.0128444371        6.7400318591
  C        12.4221469186       16.2875633387        6.4714527505
  N        19.6060633278       16.0049832205        5.1920974505
  C        20.9234668410       16.2751293513        5.4641161704
  N         8.7894309104       16.0205055133       16.0203818462
  C        10.1069062602       16.2897070489       16.2896516339
  N        19.6032710338        6.7487395320       17.5600815978
  C        20.9216400697        6.4808916844       17.2904356402
  N         8.7838287676        6.7356308290        6.7353983784
  C        10.1007896755        6.4647322729        6.4646888369
  N         2.9180547761        6.7596018813        5.2031178627
  C         1.6001326470        6.4885399801        5.4723267632
  N        13.7390097384        6.7400797381       16.0128108297
  C        12.4220647044        6.4715294279       16.2874903531
  N        15.8986081326        5.1867884681       19.7159025071
  C        16.1667792092        5.4584131620       21.0333580676
  N        15.8889951227       16.0060989893        8.8989024430
  C        16.1599983127       16.2752823862       10.2166159548
  N        15.8991730560       17.5623213362        3.0318017550
  C        16.1701505111       17.2917885739        1.7145280158
  N        15.8896220155        6.7424696359       13.8536590721
  C        16.1588744389        6.4733078375       12.5357356608
  N         6.6139068341        5.1959319899        3.0398062328
  C         6.3468863401        5.4701317515        1.7226420055
  N         6.6434764725       16.0107910550       13.8617314302
  C         6.3722880647       16.2785961318       12.5442983288
  N         6.6321640394       17.5715152733       19.7264035316
  C         6.3626634253       17.2994160541       21.0437761400
  N         6.6435137541        6.7563803828        8.9040268555
  C         6.3715803501        6.4903016512       10.2219533843
  N        19.6033608624       17.5598717980        6.7489217894
  C        20.9217181934       17.2904357490        6.4808845182
  N         8.7904059193       17.5763801294       17.5764128812
  C        10.1082376079       17.3056954490       17.3057002687
  N         2.9180672838        5.2032857307        6.7595902471
  C         1.6001442555        5.4724474978        6.4884805107
  N        13.7419071427        5.1841963623       17.5687335885
  C        12.4235734096        5.4555947098       17.3035418472
  N         2.9283909489       17.5694151615       16.0132540001
  C         1.6107373341       17.2978002050       16.2816233549
  N        13.7420401812       17.5687691259        5.1841560835
  C        12.4236878169       17.3036125255        5.4555276530
  N        19.6059727573        5.1919100317       16.0051806619
  C        20.9233891718        5.4641337999       16.2751362390
  N         8.7810790163        5.1801991649        5.1801338949
  C        10.0996751371        5.4487509253        5.4487740191
  N         6.6321811449       19.7265251576       17.5713267053
  C         6.3625543827       21.0439031475       17.2993689045
  N         6.6428681214        8.9041544551        6.7568993235
  C         6.3716573854       10.2220790733        6.4900745132
  N         6.6138922934        3.0399134410        5.1957595907
  C         6.3469910225        1.7227494723        5.4700827367
  N         6.6442339743       13.8618429768       16.0114882974
  C         6.3721470896       12.5444203936       16.2783606913
  N        15.8990657212        3.0317898165       17.5623224483
  C        16.1700895810        1.7145183622       17.2918029985
  N        15.8897201650       13.8536741670        6.7424740072
  C        16.1589431300       12.5357527348        6.4733006440
  N        15.8987165353       19.7158982233        5.1867877189
  C        16.1668364878       21.0333551831        5.4584365191
  N        15.8888848829        8.8989166308       16.0060963937
  C        16.1599191358       10.2166311100       16.2752620994
  N        17.4489233635        6.7475319705       19.7154532080
  C        17.1794382224        6.4776679838       21.0333828881
  N        17.4468735298       17.5585858864        8.8983078073
  C        17.1779222172       17.2891937934       10.2159577880
  N         5.0680339024        6.7614931406        3.0412316507
  C         5.3371944639        6.4923782784        1.7229623934
  N         5.0836323332       17.5627773719       13.8611910891
  C         5.3535796076       17.2919160446       12.5439317462
  N        17.4531987097       16.0046827251        3.0332894079
  C        17.1848345690       16.2744400913        1.7152547119
  N        17.4478001120        5.1890602657       13.8525740892
  C        17.1763372005        5.4587350922       12.5352433315
  N         5.0829654702       16.0093884841       19.7243592403
  C         5.3510921033       16.2790556117       21.0424944967
  N         5.0814884723        5.2069575670        8.9057465121
  C         5.3516028990        5.4782963508       10.2228111868
  N        17.4573237420       19.7162578039       16.0050074752
  C        17.1871750188       21.0342310278       16.2744001232
  N        17.4429587817        8.8975849451        5.1875548846
  C        17.1737788085       10.2150266513        5.4581398871
  N         5.0774106030        3.0410262581       16.0081268724
  C         5.3479659023        1.7234755779       16.2783795699
  N         5.0827430594       13.8599243502        5.2055042253
  C         5.3523356775       12.5427118910        5.4770226093
  N        17.4481954091        3.0323082096        6.7457428109
  C        17.1788549949        1.7142923968        6.4767412604
  N        17.4536406405       13.8533811264       17.5593419961
  C        17.1814753081       12.5361159529       17.2898785821
  N         5.0707582878       19.7227871895        6.7628459006
  C         5.3385480447       21.0414249687        6.4932484193
  N         5.0814226983        8.9069284507       17.5578928728
  C         5.3522290615       10.2242913851       17.2889538105
  N        19.6005403610        6.7491493177        5.1929400823
  C        20.9184515432        6.4834455900        5.4673278742
  N         8.7848589589        6.7439074942       16.0251174860
  C        10.1020460968        6.4727942396       16.2942814738
  N         2.9206175226        6.7561797419       17.5614206630
  C         1.6030748324        6.4843888732       17.2913299396
  N        13.7377803300        6.7366252038        6.7366473625
  C        12.4205940974        6.4657422378        6.4657725371
  N         2.9227500171       16.0078298056        5.1976442439
  C         1.6046302444       16.2765998549        5.4669855084
  N        13.7433558078       16.0133074535       16.0134364937
  C        12.4267912746       16.2856181642       16.2856135831
  N        19.6121233780       16.0055799370       17.5608931723
  C        20.9299467546       16.2777279841       17.2936125056
  N         8.7848815893       16.0251906043        6.7437861153
  C        10.1020824366       16.2943879953        6.4726465365
  N         6.6249169432       17.5719826075        3.0422132514
  C         6.3589317291       17.2994967200        1.7243835142
  N         6.6439774695        6.7566082472       13.8603423755
  C         6.3716516195        6.4899098027       12.5427946572
  N         6.6179720684        5.1989608648       19.7254440522
  C         6.3487600230        5.4716824575       21.0424784042
  N         6.6416541889       16.0071888599        8.9064731042
  C         6.3715322070       16.2764642681       10.2239948880
  N        15.9041830609       17.5633990949       19.7166802193
  C        16.1728379022       17.2920270723       21.0341084339
  N        15.8863083898        6.7414781249        8.8969300267
  C        16.1567704182        6.4730636750       10.2149543527
  N        15.8967602435        5.1857715982        3.0308575342
  C        16.1657763762        5.4577930000        1.7135966036
  N        15.8937321108       16.0077544052       13.8549747986
  C        16.1629093931       16.2764756271       12.5371161639
 Zn        14.6013190966       14.7184516401       14.7184428716
 Cl        13.3639543627       13.4884250892       13.4884284757
 Zn        14.6060688708        3.8918575153        3.8918651367
 Cl        13.3769285866        2.6574652459        2.6574797780
 Zn         3.7890487015       14.7159499887        3.9062794053
 Cl         2.5609542072       13.4729507531        2.6804933343
 Zn         3.7891002892        3.9063507330       14.7158601336
 Cl         2.5609268121        2.6805877382       13.4729212169
 Zn         7.9412622897        8.0412207672       14.7252435504
 Cl         9.2218748436        9.2529420012       13.5209883986
 Zn         7.9087409770       18.8734085763        3.9009590466
 Cl         9.1304920667       20.1124925202        2.6643810218
 Zn        18.7352879379        8.0392566662        3.8972612478
 Cl        19.9692956390        9.2734328248        2.6676126436
 Zn        18.7490099346       18.8498454694       14.7140109321
 Cl        19.9802422216       20.0800648168       13.4776557145
 Zn         7.9411646463       14.7252580358        8.0411401812
 Cl         9.2219628624       13.5211094532        9.2527798044
 Zn         7.9086975865        3.9011181345       18.8732799970
 Cl         9.1303985528        2.6645452075       20.1123556090
 Zn        18.7490502090       14.7140241119       18.8498093313
 Cl        19.9802258516       13.4776493327       20.0800648313
 Zn        18.7353168579        3.8972810936        8.0392392336
 Cl        19.9692869155        2.6676136353        9.2734320508
 Zn        14.5970322308        8.0301104951        8.0300740920
 Cl        13.3627148393        9.2621289104        9.2621352204
 Zn        14.6129073780       18.8605128575       18.8605304306
 Cl        13.3853301183       20.0951375069       20.0951339518
 Zn         3.7844744352        8.0537579788       18.8484782564
 Cl         2.5529361098        9.2935721041       20.0749920372
 Zn         3.7844099779       18.8485392616        8.0536507531
 Cl         2.5529836755       20.0750915881        9.2935436491
 Zn        14.5987042888       14.7169818810        8.0326631196
 Cl        13.3635104014       13.4865151105        9.2648459332
 Zn        14.6079592127        3.8928189558       18.8575681597
 Cl        13.3792982499        2.6570436558       20.0907076118
 Zn         3.7911205483       14.7187995882       18.8601070147
 Cl         2.5610787483       13.4811584043       20.0893142853
 Zn         3.7840758207        3.9118934664        8.0544488218
 Cl         2.5535420117        2.6909034738        9.2999494178
 Zn         7.9437004510        8.0336142314        8.0334524715
 Cl         9.2421798511        9.2324754458        9.2324271158
 Zn         7.9217134846       18.8691624959       18.8690383165
 Cl         9.1515743043       20.1026439267       20.1026510696
 Zn        18.7364762433        8.0415319699       18.8501857986
 Cl        19.9701042215        9.2744616166       20.0818097155
 Zn        18.7366240707       18.8501491045        8.0415215171
 Cl        19.9701410737       20.0818450058        9.2744820675
 Zn        14.5986339555        8.0326839488       14.7169591249
 Cl        13.3634387265        9.2648624385       13.4864855794
 Zn        14.6080676821       18.8576014165        3.8927988499
 Cl        13.3792975443       20.0906818682        2.6570823699
 Zn         3.7840067372        8.0545422424        3.9118115330
 Cl         2.5535046677        9.3000102182        2.6907460052
 Zn         3.7910665572       18.8602213593       14.7186770747
 Cl         2.5610370717       20.0894941805       13.4810733534
 Zn         7.9403803982       14.7239020344       14.7238823329
 Cl         9.2018258214       13.5058396447       13.5057834326
 Zn         7.9018269587        3.8948101788        3.8947100359
 Cl         9.1141579998        2.6522155788        2.6522486629
 Zn        18.7431310332       14.7140543123        3.8985130858
 Cl        19.9762032371       13.4775137510        2.6704927280
 Zn        18.7429910170        3.8985014653       14.7140673599
 Cl        19.9761424104        2.6705227536       13.4775500708
 Zn         5.8513481603        5.9722969408       16.7877263578
 Zn        16.6736267772       16.7814908725       16.7815198603
 Zn        16.6674768813        5.9603335925        5.9603317870
 Zn         5.8510312026       16.7874734741        5.9725296171
 Zn         5.8479049166        5.9701351898        5.9701080671
 Zn        16.6692109608       16.7802806032        5.9612003051
 Zn         5.8568670356       16.7898603785       16.7899160891
 Zn        16.6690994370        5.9611733055       16.7803164578
  N         3.6680607170        5.9775958993       16.7849062900
  N        14.4848923190        5.9592360100        5.9592433038
  N        18.8653173519       16.7819081523       16.7818891318
  N         8.0378796929       16.8037503739        5.9674830862
  N        18.8541810238        5.9686161108        5.9686028610
  N         8.0378920197        5.9676062411       16.8036853193
  N         3.6680394910       16.7847355688        5.9777467054
  N        14.4920282973       16.7901089997       16.7903117884
  N        16.6725362585        3.7780225205        5.9648825060
  N        16.6743502564       14.6005566267       16.7836373716
  N        16.6810110091       18.9698407052       16.7848073886
  N        16.6644165886        8.1505005554        5.9638454393
  N         5.8447142194       18.9774673928        5.9796526643
  N         5.8617075880        8.1599671791       16.7832577231
  N         5.8499737349        3.7882135709       16.7907912524
  N         5.8634619260       14.6066190138        5.9800475710
  N         5.8498960641       16.7909356756        3.7881296397
  N         5.8644951979        5.9791751604       14.6065520859
  N        16.6810035738       16.7847999047       18.9698413897
  N        16.6644255927        5.9638638378        8.1504850498
  N         5.8448186073        5.9798536020       18.9774200943
  N         5.8604266244       16.7820958871        8.1598731683
  N        16.6725402337        5.9648740899        3.7780133645
  N        16.6743426835       16.7836484068       14.6005521395
  N         5.8402855617        3.7870951636        5.9768275949
  N         5.8649890337       14.6080633539       16.7887669013
  N        16.6741742265       18.9689985323        5.9665257184
  N        16.6674669388        8.1517727873       16.7825167141
  N         5.8579043239       18.9788353857       16.7909405809
  N         5.8617679049        8.1582659289        5.9808243962
  N        16.6753269383        3.7789538901       16.7835754999
  N        16.6692565822       14.5994654282        5.9655813764
  N         3.6747814959       16.7919541397       16.7918252966
  N        14.4869503895       16.7882478804        5.9611218744
  N        18.8581877280       16.7822533865        5.9694658018
  N         8.0434235068       16.7984886111       16.7984446609
  N        18.8580933628        5.9691640796       16.7825742562
  N         8.0358102699        5.9589661587        5.9587488953
  N         3.6643058407        5.9818787213        5.9817866276
  N        14.4868521479        5.9611577479       16.7882292903
  N        16.6740290164        5.9665571676       18.9689925520
  N        16.6675881170       16.7825128427        8.1517749220
  N        16.6754643823       16.7835930915        3.7789502741
  N        16.6691513826        5.9655758749       14.5994675227
  N         5.8404138846        5.9771227241        3.7869933566
  N         5.8637051544       16.7875399434       14.6079649424
  N         5.8577770311       16.7912512961       18.9787193405
  N         5.8628278295        5.9798733394        8.1581579387
  C        11.2650435988       15.7371942891       15.7371785701
  H        11.2615818090       14.9615287284       14.9616699842
  C        11.2607244155        4.8987831748        4.8988274525
  H        11.2622252074        4.1232997592        4.1233359645
  C         0.4450570782       15.7257784234        4.9150642628
  H         0.4466470336       14.9501412563        4.1396245021
  C         0.4449913140        4.9150879648       15.7258054593
  H         0.4464768378        4.1394510984       14.9503651629
  C        11.2609026884        7.0227317905       15.7405999644
  H        11.2577421571        7.7982042969       14.9648631892
  C        11.2641880515       17.8579501208        4.9062355440
  H        11.2670289254       18.6334024944        4.1306615268
  C         0.4392442997        7.0368165518        4.9203109873
  H         0.4390208995        7.8129188715        4.1453209805
  C         0.4502610004       17.8461064736       15.7291609303
  H         0.4500853473       18.6211489910       14.9530840452
  C        11.2609436984       15.7407186319        7.0225915575
  H        11.2577689474       14.9649810209        7.7980518404
  C        11.2640650724        4.9063298433       17.8578629973
  H        11.2666553079        4.1307624118       18.6333069704
  C         0.4503120531       15.7292565007       17.8459793731
  H         0.4502373407       14.9531992941       18.6210326038
  C         0.4392804018        4.9203962824        7.0367566905
  H         0.4391275011        4.1453967970        7.8128440987
  C        11.2603727996        7.0157168268        7.0157283605
  H        11.2580565401        7.7913435691        7.7913761538
  C        11.2706636931       17.8540802526       17.8540878767
  H        11.2739232739       18.6295471965       18.6296737924
  C         0.4413150706        7.0336616399       17.8404533350
  H         0.4395537950        7.8102237712       18.6150037431
  C         0.4413803359       17.8404608217        7.0336769680
  H         0.4397193855       18.6148131995        7.8104382064
  C        15.6095644156       11.3777830802       15.7266022973
  H        14.8322003976       11.3793310787       14.9528724142
  C        15.6171962776        0.5530853281        4.9062493867
  H        14.8438241614        0.5524992043        4.1284743929
  C         4.7992001928       11.3827662574        4.9293397333
  H         4.0206859647       11.3825970116        4.1566583469
  C         4.8018694352        0.5622114799       15.7254731181
  H         4.0298003408        0.5607292614       14.9465015275
  C        15.6066502474       11.3757574754        7.0230537675
  H        14.8300628440       11.3764969219        7.7976209623
  C        15.6217154143        0.5537434010       17.8430286779
  H        14.8471398075        0.5528809981       18.6195827670
  C         4.8005978255       11.3838427074       17.8393047700
  H         4.0235208397       11.3832385238       18.6134389269
  C         4.7911456638        0.5621612448        7.0467010096
  H         4.0200749769        0.5620568522        7.8266129277
  C         6.9239183208       11.3845379112       15.7283473344
  H         7.7036389322       11.3852291165       14.9572328738
  C         6.8954390246        0.5627494002        4.9174985042
  H         7.6663578290        0.5632338217        4.1372029018
  C        17.7263304810       11.3746642750        4.9086884784
  H        18.5028754551       11.3738977169        4.1341135875
  C        17.7353947195        0.5552774980       15.7229594694
  H        18.5094700840        0.5562831343       14.9459339384
  C         6.9239320020       11.3825163401        7.0386286968
  H         7.7036951408       11.3829238674        7.8096419370
  C         6.9089064501        0.5650365707       17.8521273164
  H         7.6809241039        0.5667442457       18.6313004147
  C        17.7315110508       11.3750380215       17.8388165077
  H        18.5088183537       11.3733740047       18.6126709508
  C        17.7276585659        0.5541873314        7.0296820836
  H        18.5007817156        0.5548227717        7.8076505222
  C        15.6096133549       15.7266355696       11.3777538349
  H        14.8322545773       14.9528999256       11.3792699221
  C        15.6171705198        4.9062130587        0.5530933254
  H        14.8438065252        4.1284346270        0.5525075973
  C         4.8019678495       15.7255535679        0.5620692154
  H         4.0298555464       14.9466345663        0.5605628084
  C         4.7991573275        4.9295484717       11.3826401565
  H         4.0212915510        4.1562172566       11.3823296412
  C         6.9240501103       15.7285834909       11.3844039776
  H         7.7029663697       14.9566567806       11.3850494595
  C         6.8953426057        4.9175709121        0.5626313992
  H         7.6663157054        4.1373345897        0.5629176848
  C        17.7354201978       15.7229414621        0.5552538273
  H        18.5094816616       14.9459010739        0.5562327273
  C        17.7262944715        4.9087123382       11.3746658859
  H        18.5028389192        4.1341412052       11.3739067780
  C        15.6066142960        7.0230772297       11.3757271766
  H        14.8300319052        7.7976471466       11.3764361254
  C        15.6217440276       17.8430060089        0.5537601805
  H        14.8471532312       18.6195507040        0.5529064090
  C         4.7910521937        7.0468073834        0.5620588358
  H         4.0200417595        7.8267882901        0.5619568219
  C         4.8007302112       17.8395427365       11.3836985389
  H         4.0228496952       18.6128746266       11.3829221984
  C         6.9238486135        7.0388472119       11.3823977173
  H         7.7042525545        7.8092099026       11.3827609978
  C         6.9090099305       17.8521854481        0.5648997165
  H         7.6809815352       18.6314092209        0.5664304927
  C        17.7276287439        7.0296609316        0.5541614195
  H        18.5007585228        7.8076207826        0.5547744240
  C        17.7315574783       17.8388465363       11.3750487251
  H        18.5088716004       18.6126996554       11.3733945186
 Xe         6.6594801956       11.3258908004       11.3259035620
