     409
 i =     150, E =    -5183.7574751820
  N         2.9607631787        5.2089067241       16.0347157536
  C         1.6419675214        5.4786346680       16.2995709008
  N        13.7608005165        5.2048013560        5.2048011482
  C        12.4444672037        5.4784339824        5.4784356717
  N        19.6500959626       17.5756312308       16.0190888258
  C        20.9680632762       17.3081141066       16.2919516219
  N         8.8221552309       17.5851613485        5.2209389719
  C        10.1400823233       17.3103121233        5.4846463469
  N        19.6249496242        5.2000528368        6.7560620895
  C        20.9423550008        5.4750416526        6.4910620449
  N         8.8221541846        5.2209385996       17.5851620938
  C        10.1400821699        5.4846495167       17.3103185923
  N         2.9549784141       17.5873658642        6.7679962482
  C         1.6380719922       17.3141749556        6.4960615991
  N        13.7908093315       17.5747789282       17.5747706560
  C        12.4726733174       17.3059473932       17.3059528312
  N        15.9122714569        3.0446957001        5.1999657018
  C        16.1839213019        1.7271576886        5.4701439835
  N        15.9416754818       13.8644582961       16.0166962003
  C        16.2099026445       12.5469165587       16.2872792463
  N        15.9412307556       19.7287146521       17.5732162390
  C        16.2076796586       21.0465277978       17.3012787936
  N        15.9224272169        8.9104300016        6.7561980969
  C        16.1936547650       10.2275450519        6.4856615571
  N         6.6676215940       19.7482786275        5.2221757345
  C         6.3935661663       21.0656413688        5.4905828127
  N         6.6648023755        8.9221313344       16.0266352837
  C         6.3961924841       10.2398463419       16.2968877892
  N         6.6750788617        3.0618150112       17.5940680225
  C         6.4103301024        1.7431854753       17.3221597510
  N         6.6641790823       13.8780206999        6.7657870833
  C         6.3916034743       12.5611495281        6.4964777353
  N         5.1212490544       16.0373171310        3.0583875433
  C         5.3949808899       16.3056126850        1.7413553383
  N         5.1074661703        5.2119090083       13.8811474706
  C         5.3736285505        5.4826080289       12.5628631829
  N        17.4937163594       16.0149508656       19.7298893866
  C        17.2219881010       16.2837424461       21.0474012924
  N        17.4748466424        5.1974381992        8.9081466162
  C        17.2078151862        5.4679271407       10.2259899530
  N         5.1088244520        6.7745415355       19.7450493879
  C         5.3757519481        6.5047773123       21.0634588219
  N         5.1118885598       17.5857061117        8.9234447652
  C         5.3824851850       17.3152774731       10.2408348579
  N        17.4697492617        6.7546950532        3.0463703898
  C        17.2005518510        6.4856002754        1.7286847174
  N        17.4953860923       17.5740156691       13.8637253733
  C        17.2245868899       17.3044977525       12.5463191996
  N         5.0957875027        3.0622366364        6.7738392192
  C         5.3690899489        1.7447697160        6.5045878426
  N         5.1207231146       13.8794481829       17.5889771401
  C         5.3865453917       12.5613424458       17.3171389576
  N        17.4810864572       19.7314821895        6.7544335390
  C        17.2065930859       21.0484033273        6.4857971896
  N        17.4871926503        8.9085359251       17.5781295556
  C        17.2203893731       10.2262600835       17.3065652217
  N         5.1292722632       19.7432345823       16.0346160566
  C         5.3989967878       21.0609657691       16.3039645065
  N         5.0936368100        8.9248757114        5.2194319752
  C         5.3680245665       10.2423941053        5.4856559549
  N        17.4876336786        3.0457820484       16.0141205986
  C        17.2186381420        1.7278851729       16.2832845452
  N        17.4872079506       13.8632778477        5.2006924872
  C        17.2140885461       12.5460843496        5.4692180592
  N         2.9677312217       16.0340798349       17.5899056695
  C         1.6497759947       16.2990581311       17.3150799685
  N        13.7804535791       16.0163828319        6.7575061553
  C        12.4623260786       16.2880730727        6.4908822533
  N        19.6434514029       16.0198483178        5.2016016304
  C        20.9605031232       16.2922020268        5.4744744887
  N         8.8299990793       16.0250536780       16.0250503541
  C        10.1487089119       16.2931137002       16.2931184522
  N        19.6382562177        6.7567895945       17.5776077002
  C        20.9568286367        6.4902423364       17.3086741908
  N         8.8120820417        6.7750360729        6.7750350733
  C        10.1287588128        6.5021471594        6.5021471473
  N         2.9400043685        6.7714034442        5.2162620959
  C         1.6224292185        6.4986214991        5.4827258872
  N        13.7804539460        6.7575063734       16.0163800720
  C        12.4623253282        6.4908875853       16.2880764410
  N        15.9266960645        5.1977330959       19.7278397470
  C        16.1910478068        5.4694566895       21.0462133155
  N        15.9352536937       16.0193004155        8.9098060577
  C        16.2064205286       16.2887071643       10.2270435237
  N        15.9328990610       17.5707199383        3.0441834714
  C        16.2034969237       17.3000937279        1.7268606487
  N        15.9334734744        6.7579735995       13.8652989176
  C        16.1993849973        6.4863996420       12.5475469727
  N         6.6536536899        5.2200156984        3.0649789478
  C         6.3864810720        5.4899017004        1.7467235707
  N         6.6715370268       16.0291419740       13.8773355197
  C         6.3995802348       16.2983117616       12.5601344015
  N         6.6864157335       17.5891484555       19.7440683434
  C         6.4155191759       17.3195251198       21.0618516500
  N         6.6548758064        6.7699380635        8.9244092830
  C         6.3880061890        6.4973429119       10.2415244121
  N        19.6382583484       17.5776082559        6.7567894330
  C        20.9568302384       17.3086713512        6.4902450810
  N         8.8348748136       17.5813143410       17.5813093319
  C        10.1517346856       17.3091716144       17.3091753671
  N         2.9400049427        5.2162597613        6.7714009698
  C         1.6224311576        5.4827247151        6.4986195662
  N        13.7785073204        5.2005041360       17.5718983729
  C        12.4611003821        5.4749057563       17.3042697571
  N         2.9677322962       17.5899064007       16.0340776534
  C         1.6497764294       17.3150813489       16.2990560415
  N        13.7785077360       17.5719013348        5.2005030472
  C        12.4610999914       17.3042661071        5.4749002293
  N        19.6434486917        5.2016018184       16.0198474887
  C        20.9605029794        5.4744719912       16.2922047701
  N         8.8056672986        5.2196674099        5.2196662211
  C        10.1241861315        5.4862206746        5.4862203471
  N         6.6864164208       19.7440705188       17.5891448015
  C         6.4155166295       21.0618536469       17.3195244498
  N         6.6548762045        8.9244082010        6.7699398207
  C         6.3880080118       10.2415237804        6.4973431163
  N         6.6536536088        3.0649777216        5.2200165533
  C         6.3864811078        1.7467228703        5.4899007135
  N         6.6715348843       13.8773369738       16.0291423383
  C         6.3995797942       12.5601355713       16.2983142560
  N        15.9328926200        3.0441844448       17.5707151322
  C        16.2034990740        1.7268625897       17.3000969008
  N        15.9334728057       13.8652952335        6.7579702957
  C        16.1993882168       12.5475459028        6.4863988848
  N        15.9266889445       19.7278361618        5.1977363792
  C        16.1910478652       21.0462112591        5.4694526729
  N        15.9352679929        8.9098057887       16.0192853943
  C        16.2064066405       10.2270450410       16.2887188361
  N        17.4810920579        6.7544336912       19.7314868540
  C        17.2065920542        6.4858032890       21.0484090910
  N        17.4871795931       17.5781448083        8.9085343394
  C        17.2204035916       17.3065533013       10.2262583030
  N         5.0957864112        6.7738374998        3.0622387977
  C         5.3690889104        6.5045880934        1.7447716361
  N         5.1207264612       17.5889781658       13.8794465273
  C         5.3865468518       17.3171372943       12.5613408150
  N        17.4876391798       16.0141250321        3.0457794232
  C        17.2186357495       16.2832809103        1.7278835607
  N        17.4872079082        5.2006975509       13.8632819413
  C        17.2140849741        5.4692196134       12.5460876395
  N         5.1292713597       16.0346204039       19.7432328378
  C         5.3989990526       16.3039654075       21.0609637011
  N         5.0936353602        5.2194309339        8.9248769026
  C         5.3680222232        5.4856562608       10.2423952409
  N        17.4937069215       19.7298937467       16.0149400324
  C        17.2219926164       21.0474050904       16.2837481973
  N        17.4748444272        8.9081450898        5.1974429078
  C        17.2078119525       10.2259867724        5.4679307299
  N         5.1212490357        3.0583897356       16.0373145031
  C         5.3949777668        1.7413569094       16.3056124538
  N         5.1074693638       13.8811460387        5.2119046205
  C         5.3736320592       12.5628624834        5.4826044998
  N        17.4697520131        3.0463682407        6.7547019049
  C        17.2005571585        1.7286799343        6.4856039428
  N        17.4953979229       13.8637286663       17.5739992874
  C        17.2245742389       12.5463222105       17.3045084754
  N         5.1088271140       19.7450475145        6.7745391293
  C         5.3757539731       21.0634579698        6.5047750255
  N         5.1118849969        8.9234458108       17.5857040289
  C         5.3824840109       10.2408352863       17.3152780993
  N        19.6249500257        6.7560527931        5.2000634202
  C        20.9423522969        6.4910544767        5.4750508716
  N         8.8233108380        6.7728254955       16.0251205059
  C        10.1409230586        6.4986944470       16.2922962309
  N         2.9549747901        6.7679975781       17.5873663043
  C         1.6380709489        6.4960600843       17.3141775294
  N        13.7685454583        6.7608415576        6.7608407566
  C        12.4495672286        6.4944741613        6.4944758437
  N         2.9607646535       16.0347150083        5.2089053528
  C         1.6419693849       16.2995680692        5.4786358344
  N        13.7876487872       16.0183943316       16.0183862940
  C        12.4702982612       16.2898688827       16.2898747402
  N        19.6500955191       16.0190946847       17.5756244288
  C        20.9680613515       16.2919560770       17.3081094104
  N         8.8233104927       16.0251208768        6.7728266797
  C        10.1409237949       16.2922903570        6.4986917329
  N         6.6750798537       17.5940695737        3.0618138382
  C         6.4103337531       17.3221595365        1.7431831855
  N         6.6641771133        6.7657904068       13.8780206275
  C         6.3916005372        6.4964805770       12.5611502340
  N         6.6676197072        5.2221791625       19.7482787423
  C         6.3935649288        5.4905859317       21.0656423124
  N         6.6648037765       16.0266355070        8.9221307724
  C         6.3961923902       16.2968860396       10.2398449784
  N        15.9412406371       17.5732273876       19.7287118391
  C        16.2076751275       17.3012735867       21.0465250260
  N        15.9224310120        6.7561923626        8.9104316510
  C        16.1936585502        6.4856576629       10.2275445603
  N        15.9122684924        5.1999563370        3.0446979103
  C        16.1839167857        5.4701391631        1.7271585435
  N        15.9416636964       16.0167122803       13.8644562581
  C        16.2099154783       16.2872687952       12.5469149557
 Zn        14.6509779686       14.7240380536       14.7240334490
 Cl        13.4152851152       13.4932642246       13.4932648290
 Zn        14.6164932070        3.9084456984        3.9084598049
 Cl        13.3792283149        2.6789924686        2.6789937997
 Zn         3.8274571676       14.7484593912        3.9127048723
 Cl         2.5929222369       13.5168648807        2.6805874646
 Zn         3.8274554234        3.9127069821       14.7484585042
 Cl         2.5929188256        2.6805910949       13.5168647043
 Zn         7.9550015604        8.0609007544       14.7304197325
 Cl         9.1720214169        9.2982874705       13.4873308481
 Zn         7.9605240285       18.8839106643        3.9356021688
 Cl         9.1979361850       20.1147161622        2.7050528318
 Zn        18.7658153072        8.0476271047        3.9034861080
 Cl        19.9978300730        9.2782397803        2.6696272785
 Zn        18.7846098117       18.8687909194       14.7236332393
 Cl        20.0189609090       20.0975320294       13.4894488620
 Zn         7.9550006629       14.7304201767        8.0609000658
 Cl         9.1720191205       13.4873291210        9.2982853205
 Zn         7.9605208277        3.9356034687       18.8839112773
 Cl         9.1979312478        2.7050530202       20.1147172087
 Zn        18.7846132938       14.7236377385       18.8687833854
 Cl        20.0189553387       13.4894520762       20.0975328131
 Zn        18.7658166656        3.9034741452        8.0476432756
 Cl        19.9978414454        2.6696166993        9.2782498663
 Zn        14.6326470091        8.0532512465        8.0532601218
 Cl        13.4020531285        9.2865212296        9.2865249559
 Zn        14.6542161328       18.8691856947       18.8691830186
 Cl        13.4210133847       20.1011655757       20.1011628601
 Zn         3.8179146661        8.0624319412       18.8778934047
 Cl         2.5871795964        9.3005355556       20.1067304111
 Zn         3.8179179015       18.8778940110        8.0624310989
 Cl         2.5871810708       20.1067296359        9.3005338579
 Zn        14.6455796241       14.7246321379        8.0526090773
 Cl        13.4105073167       13.4950092290        9.2854471224
 Zn        14.6408435522        3.9030578799       18.8639411674
 Cl        13.4050197516        2.6696308867       20.0919071990
 Zn         3.8347570773       14.7455811588       18.8822399886
 Cl         2.6035236781       13.5133060050       20.1169944592
 Zn         3.7998592255        3.9272772181        8.0631113088
 Cl         2.5703215095        2.6944522591        9.2982986926
 Zn         7.9449165929        8.0661655721        8.0661667627
 Cl         9.1785284764        9.2985714493        9.2985745074
 Zn         7.9799970920       18.8773872519       18.8773848769
 Cl         9.2197176091       20.1060881749       20.1060851083
 Zn        18.7744418025        8.0476655767       18.8739335240
 Cl        20.0069666467        9.2789922037       20.1071380171
 Zn        18.7744402061       18.8739380108        8.0476609712
 Cl        20.0069666736       20.1071401416        9.2789885249
 Zn        14.6455815423        8.0526114510       14.7246279750
 Cl        13.4104997715        9.2854457206       13.4950100556
 Zn        14.6408466769       18.8639450519        3.9030547321
 Cl        13.4050147263       20.0919068940        2.6696309894
 Zn         3.7998605735        8.0631115226        3.9272782465
 Cl         2.5703192057        9.2983007943        2.6944587144
 Zn         3.8347580489       18.8822398487       14.7455771508
 Cl         2.6035247304       20.1169925916       13.5133009126
 Zn         7.9603587548       14.7327339729       14.7327346129
 Cl         9.1835502182       13.4955507459       13.4955530086
 Zn         7.9458002664        3.9304992241        3.9305026698
 Cl         9.1770840177        2.6968599516        2.6968544458
 Zn        18.7796330911       14.7233575676        3.9083277381
 Cl        20.0126112618       13.4889388348        2.6787300005
 Zn        18.7796305806        3.9083307979       14.7233535109
 Cl        20.0126103858        2.6787337032       13.4889358800
 Zn         5.8922287086        5.9972641181       16.8153899980
 Zn        16.7188471449       16.7938270445       16.7938177635
 Zn        16.6969663861        5.9750940769        5.9750633821
 Zn         5.8922298227       16.8153905827        5.9972625382
 Zn         5.8758449767        5.9994459342        5.9994463998
 Zn        16.7124915822       16.7948980904        5.9755092567
 Zn         5.9008297952       16.8148015819       16.8147986573
 Zn        16.7124926637        5.9754983275       16.7949181788
  N         3.7043806185        5.9888917329       16.8131482524
  N        14.5111183896        5.9810769101        5.9810742416
  N        18.9039319999       16.7959374819       16.7959278270
  N         8.0763035823       16.8074092370        5.9994208147
  N        18.8785269057        5.9753284509        5.9753433477
  N         8.0763030192        5.9994181272       16.8074100480
  N         3.7043822155       16.8131499270        5.9888932546
  N        14.5354747496       16.7959230785       16.7959225313
  N        16.6906370084        3.7919004212        5.9771083284
  N        16.7193809830       14.6106234988       16.7948520362
  N        16.7189511590       18.9825149725       16.7950847700
  N        16.6975552255        8.1625681246        5.9767650500
  N         5.8901630301       19.0001122168        5.9988264630
  N         5.8879507314        8.1765748864       16.8064376939
  N         5.8956224875        3.8068693107       16.8166021554
  N         5.8875911243       14.6264195547        5.9886087169
  N         5.8956255496       16.8166049354        3.8068673953
  N         5.8875872287        5.9886117906       14.6264201933
  N        16.7189576880       16.7950924235       18.9825113164
  N        16.6975607933        5.9767556138        8.1625667223
  N         5.8901616134        5.9988279351       19.0001130597
  N         5.8879514592       16.8064401360        8.1765739228
  N        16.6906305319        5.9770966716        3.7919003168
  N        16.7193732694       16.7948651847       14.6106204023
  N         5.8733140518        3.8101523266        5.9966868135
  N         5.8978254026       14.6251951165       16.8097899916
  N        16.7066574888       18.9829125007        5.9750744235
  N        16.7101888092        8.1624200399       16.7992029076
  N         5.9079143562       18.9972635671       16.8120605536
  N         5.8721745734        8.1782456070        5.9964446790
  N        16.7099366542        3.7915037399       16.7928097445
  N        16.7121101882       14.6108894941        5.9801631784
  N         3.7142438738       16.8146295485       16.8146271290
  N        14.5258392576       16.7931227243        5.9770318564
  N        18.8946660314       16.7980233724        5.9776144238
  N         8.0860597220       16.8044050456       16.8044001717
  N        18.8946650580        5.9776069716       16.7980248002
  N         8.0621707770        5.9988003240        5.9987987278
  N         3.6868224088        5.9955052298        5.9955016934
  N        14.5258389370        5.9770364217       16.7931223866
  N        16.7066621443        5.9750795254       18.9829182762
  N        16.7101838237       16.7992104189        8.1624195194
  N        16.7099441996       16.7928173739        3.7915031096
  N        16.7121024209        5.9801619056       14.6108934393
  N         5.8733146692        5.9966834116        3.8101536262
  N         5.8978266626       16.8097908458       14.6251935506
  N         5.9079146054       16.8120648624       18.9972614421
  N         5.8721736179        5.9964419494        8.1782464824
  C        11.3079763573       15.7412505061       15.7412561589
  H        11.3059352881       14.9657246333       14.9657286635
  C        11.2807498773        4.9318301109        4.9318311915
  H        11.2747590104        4.1562603025        4.1562610804
  C         0.4839021826       15.7454115407        4.9265286977
  H         0.4885071793       14.9698404538        4.1510193698
  C         0.4839002891        4.9265275222       15.7454138775
  H         0.4885058892        4.1510192022       14.9698425018
  C        11.3024077323        7.0442783719       15.7391626507
  H        11.3041215292        7.8191012551       14.9629490717
  C        11.2997449516       17.8579070275        4.9297524489
  H        11.2981029187       18.6341933827        4.1548892262
  C         0.4624566938        7.0459010281        4.9287760883
  H         0.4626285945        7.8219357559        4.1536800055
  C         0.4889763041       17.8614238288       15.7449871521
  H         0.4892066794       18.6369706538       14.9694384822
  C        11.3024091699       15.7391575788        7.0442746103
  H        11.3041270445       14.9629445933        7.8190984448
  C        11.2997458603        4.9297571170       17.8579127517
  H        11.2981087929        4.1548935148       18.6341989857
  C         0.4889743603       15.7449903331       17.8614212825
  H         0.4892023444       14.9694415635       18.6369689655
  C         0.4624618523        4.9287697332        7.0459018725
  H         0.4626465347        4.1536719155        7.8219338394
  C        11.2926676860        7.0487511897        7.0487531756
  H        11.2982051256        7.8242860179        7.8242892255
  C        11.3137127626       17.8578387824       17.8578429710
  H        11.3158864284       18.6334152949       18.6334170580
  C         0.4748867927        7.0440679742       17.8610320129
  H         0.4706571478        7.8201443570       18.6360571234
  C         0.4748896025       17.8610291964        7.0440695808
  H         0.4706599228       18.6360538391        7.8201456540
  C        15.6583521340       11.3874523038       15.7364972939
  H        14.8837041581       11.3882361503       14.9599937869
  C        15.6365024230        0.5652060180        4.9198939072
  H        14.8606727082        0.5626942664        4.1446222457
  C         4.8186215875       11.4033320116        4.9350993637
  H         4.0413271864       11.4042279274        4.1613446687
  C         4.8469472412        0.5806081361       15.7538435261
  H         4.0712867408        0.5796887217       14.9782773488
  C        15.6464367208       11.3886796402        7.0372080631
  H        14.8718507582       11.3905903600        7.8137795307
  C        15.6552698626        0.5659854962       17.8514214692
  H        14.8802180097        0.5648857868       18.6275129840
  C         4.8352441790       11.4016463381       17.8679494982
  H         4.0617465198       11.4022778894       18.6455526060
  C         4.8214058940        0.5826304133        7.0542863787
  H         4.0452758006        0.5800925019        7.8292423441
  C         6.9467103410       11.3995332322       15.7452973845
  H         7.7203222215       11.3988516055       14.9677334080
  C         6.9411649270        0.5876509934        4.9406727261
  H         7.7179281003        0.5900789970        4.1663177869
  C        17.7606185383       11.3848876635        4.9171044947
  H        18.5353456190       11.3831514073        4.1407348107
  C        17.7698307103        0.5682964183       15.7319698595
  H        18.5444045294        0.5694731876       14.9554148425
  C         6.9423001312       11.4006417929        7.0453813169
  H         7.7192657404       11.3995925694        7.8193766421
  C         6.9636863916        0.5831759382       17.8708139472
  H         7.7392457113        0.5842696231       18.6462831860
  C        17.7724448752       11.3857895818       17.8568154474
  H        18.5471424379       11.3850644903       18.6332421286
  C        17.7536425489        0.5699483464        7.0365386194
  H        18.5292892726        0.5723092631        7.8120333327
  C        15.6583645287       15.7364863824       11.3874508791
  H        14.8837098305       14.9599891965       11.3882314553
  C        15.6365011602        4.9198922216        0.5652056457
  H        14.8606742482        4.1446186672        0.5626864551
  C         4.8469497123       15.7538441297        0.5806064128
  H         4.0712884094       14.9782783348        0.5796880419
  C         4.8186181758        4.9351018930       11.4033338828
  H         4.0413230962        4.1613482339       11.4042317746
  C         6.9467100207       15.7452945468       11.3995317789
  H         7.7203218185       14.9677301704       11.3988492235
  C         6.9411648221        4.9406757552        0.5876513921
  H         7.7179284365        4.1663217120        0.5900792594
  C        17.7698264371       15.7319649034        0.5682933389
  H        18.5444038354       14.9554129839        0.5694700359
  C        17.7606188573        4.9171050335       11.3848943703
  H        18.5353456351        4.1407351857       11.3831712456
  C        15.6464382230        7.0372071771       11.3886789371
  H        14.8718514171        7.8137784582       11.3905809718
  C        15.6552664394       17.8514165904        0.5659832244
  H        14.8802178057       18.6275109320        0.5648811976
  C         4.8214036885        7.0542873394        0.5826328523
  H         4.0452721845        7.8292424637        0.5800951817
  C         4.8352460092       17.8679487854       11.4016455311
  H         4.0617496818       18.6455526624       11.4022786678
  C         6.9422977064        7.0453825792       11.4006421747
  H         7.7192635435        7.8193778465       11.3995926720
  C         6.9636896452       17.8708141524        0.5831740752
  H         7.7392483067       18.6462838625        0.5842674160
  C        17.7536398000        7.0365408326        0.5699564168
  H        18.5292869447        7.8120353623        0.5723314243
  C        17.7724580962       17.8568046036       11.3857874724
  H        18.5471490032       18.6332372672       11.3850626977
 Xe         5.4142042282       10.3827150362       10.3827133307
