     409
 i =     150, E =    -5183.7550978875
  N         2.8415214634        5.1935701446       16.0020940780
  C         1.5239796046        5.4646549549       16.2708397186
  N        13.6551909292        5.1637524114        5.1637531187
  C        12.3363664257        5.4330544289        5.4330532112
  N        19.5341585334       17.5599530149       16.0042707361
  C        20.8519727085       17.2910271092       16.2750150205
  N         8.7029154961       17.5835409868        5.1759212378
  C        10.0218077234       17.3158761523        5.4419588891
  N        19.5182554193        5.1979696251        6.7541203329
  C        20.8354445799        5.4696956206        6.4857354884
  N         8.7029164024        5.1759225536       17.5835404826
  C        10.0218053413        5.4419631740       17.3158762653
  N         2.8418368418       17.5535184016        6.7529942559
  C         1.5242503443       17.2845805895        6.4827398410
  N        13.6683906377       17.5852944209       17.5852946161
  C        12.3501132214       17.3153744487       17.3153741877
  N        15.8315692003        3.0331808976        5.1868822661
  C        16.0997494024        1.7163512863        5.4602622878
  N        15.8071302333       13.8552947283       16.0124082975
  C        16.0764385540       12.5367247691       16.2809746219
  N        15.8358244058       19.7189728970       17.5673841955
  C        16.1027945427       21.0358812273       17.2935667701
  N        15.7969792801        8.8966399058        6.7371426360
  C        16.0673469569       10.2160077894        6.4717361506
  N         6.5350574380       19.7212107989        5.1941294187
  C         6.2627442285       21.0374098097        5.4661019245
  N         6.5639416049        8.8961054778       16.0091046077
  C         6.2972684711       10.2152531483       16.2783782127
  N         6.5403422744        3.0360798346       17.5750805895
  C         6.2727203143        1.7187274145       17.3030834383
  N         6.5591792193       13.8540338965        6.7338797841
  C         6.2867134451       12.5357172100        6.4682138777
  N         4.9918422207       16.0115000621        3.0353454923
  C         5.2617715335       16.2820172019        1.7179161071
  N         4.9969824424        5.1852280384       13.8536692624
  C         5.2661535353        5.4567506772       12.5363272514
  N        17.3802981973       16.0010157145       19.7175077205
  C        17.1113186077       16.2702616523       21.0356460959
  N        17.3625336430        5.1918036472        8.9006187286
  C        17.0901731708        5.4625302557       10.2172980469
  N         4.9855830548        6.7563257887       19.7157710383
  C         5.2512325682        6.4865797155       21.0346753327
  N         5.0014071000       17.5572968957        8.9002428413
  C         5.2767090626       17.2898381005       10.2168849828
  N        17.3757447398        6.7539772062        3.0352520156
  C        17.1081204980        6.4838125261        1.7173555667
  N        17.3737416915       17.5571951515       13.8535923917
  C        17.0998331698       17.2896701096       12.5364602983
  N         4.9748396644        3.0336748465        6.7535599822
  C         5.2463192725        1.7159209991        6.4849429744
  N         5.0085879254       13.8541428576       17.5636804246
  C         5.2795712283       12.5369515329       17.2933551992
  N        17.3798002024       19.7188032371        6.7518072952
  C        17.1103975510       21.0369521096        6.4830573999
  N        17.3706807196        8.8994465875       17.5623000040
  C        17.0981258511       10.2161950349       17.2920381244
  N         5.0010407274       19.7192330145       16.0084709365
  C         5.2659729790       21.0375169717       16.2802600649
  N         4.9881912879        8.8997291637        5.1890917492
  C         5.2624205114       10.2161566015        5.4589153384
  N        17.3770364284        3.0341438051       16.0012936344
  C        17.1092905443        1.7161414182       16.2707490756
  N        17.3667352463       13.8543024982        5.1938703438
  C        17.0925167834       12.5376121037        5.4633862194
  N         2.8509092519       16.0051774981       17.5610387312
  C         1.5331102966       16.2753350291       17.2913772876
  N        13.6627081421       16.0334669724        6.7187438820
  C        12.3451512990       16.3028789497        6.4503505275
  N        19.5262482256       16.0037331661        5.1933336250
  C        20.8437682145       16.2719891302        5.4644778656
  N         8.7140909042       16.0231346892       16.0231348725
  C        10.0308369406       16.2954923868       16.2954923936
  N        19.5265810041        6.7511002953       17.5578822968
  C        20.8440281665        6.4818024777       17.2867397450
  N         8.7002224933        6.7249241895        6.7249285034
  C        10.0171085072        6.4525924525        6.4525931343
  N         2.8322396311        6.7538850111        5.1978833399
  C         1.5150243563        6.4857466521        5.4697535505
  N        13.6627073844        6.7187469134       16.0334651119
  C        12.3451539042        6.4503532546       16.3028796882
  N        15.8353991975        5.1854407648       19.7208128608
  C        16.1019054906        5.4597440548       21.0375422594
  N        15.8044179861       16.0179602809        8.8952536634
  C        16.0747515148       16.2834351964       10.2144257660
  N        15.8326615548       17.5682702862        3.0320617843
  C        16.1008686415       17.2942314481        1.7152005975
  N        15.8009943076        6.7397127385       13.8580001230
  C        16.0697200414        6.4727418341       12.5388744169
  N         6.5226932672        5.1898170788        3.0339469420
  C         6.2571800935        5.4638727991        1.7167568449
  N         6.5690968928       16.0134019960       13.8555044642
  C         6.2993193601       16.2811036620       12.5370725144
  N         6.5487496902       17.5716136615       19.7221654094
  C         6.2767788860       17.3012936789       21.0389467927
  N         6.5516291041        6.7365791862        8.8946321804
  C         6.2834692018        6.4699073110       10.2139603851
  N        19.5265820429       17.5578811564        6.7511025040
  C        20.8440446633       17.2867426397        6.4818041282
  N         8.7095345037       17.5793491747       17.5793493966
  C        10.0281762655       17.3115757764       17.3115759174
  N         2.8322433733        5.1978829453        6.7538832340
  C         1.5149940947        5.4697466480        6.4857520047
  N        13.6618728926        5.1660124136       17.5908207822
  C        12.3436194736        5.4360978569       17.3205517106
  N         2.8509174951       17.5610343241       16.0051791589
  C         1.5330624127       17.2913876801       16.2753233210
  N        13.6618718247       17.5908219910        5.1660085539
  C        12.3436218791       17.3205504854        5.4360945914
  N        19.5262441972        5.1933310219       16.0037353976
  C        20.8437823019        5.4644740015       16.2719854467
  N         8.6943710247        5.1698433300        5.1698485502
  C        10.0137282118        5.4365898014        5.4365907558
  N         6.5487490725       19.7221660797       17.5716109861
  C         6.2767738229       21.0389327908       17.3012897354
  N         6.5516300553        8.8946305722        6.7365830513
  C         6.2834732581       10.2139693422        6.4699121049
  N         6.5226920099        3.0339447782        5.1898155087
  C         6.2571758457        1.7167693994        5.4638743311
  N         6.5690930166       13.8555066727       16.0134040055
  C         6.2993205041       12.5370551860       16.2811014855
  N        15.8326561458        3.0320613854       17.5682668226
  C        16.1008691251        1.7152183423       17.2942252199
  N        15.8010070428       13.8580013782        6.7397268937
  C        16.0697159086       12.5388652650        6.4727422941
  N        15.8353945500       19.7208160401        5.1854436295
  C        16.1019058324       21.0375289044        5.4597501976
  N        15.8044146461        8.8952543676       16.0179617005
  C        16.0747456421       10.2144428435       16.2834302834
  N        17.3797977007        6.7518100055       19.7188035969
  C        17.1103947946        6.4830555488       21.0369371262
  N        17.3706841623       17.5622994257        8.8994412630
  C        17.0981301091       17.2920419361       10.2162051228
  N         4.9748381903        6.7535585883        3.0336732926
  C         5.2463220874        6.4849394531        1.7159350998
  N         5.0085898314       17.5636754843       13.8541472171
  C         5.2795681282       17.2933570139       12.5369337926
  N        17.3770420014       16.0012972591        3.0341402379
  C        17.1092908192       16.2707545165        1.7161554807
  N        17.3667256657        5.1938604111       13.8543031201
  C        17.0925215734        5.4633878938       12.5376023513
  N         5.0010426132       16.0084727081       19.7192378050
  C         5.2659799371       16.2802650341       21.0375033964
  N         4.9881892195        5.1890886453        8.8997280088
  C         5.2624150946        5.4589109725       10.2161678683
  N        17.3802943579       19.7175143608       16.0010171101
  C        17.1113090431       21.0356281309       16.2702689664
  N        17.3625429660        8.9006167177        5.1918116691
  C        17.0901738059       10.2173100549        5.4625225489
  N         4.9918413781        3.0353439336       16.0114996418
  C         5.2617717022        1.7179253825       16.2820194753
  N         4.9969861134       13.8536700953        5.1852280438
  C         5.2661544190       12.5363179754        5.4567488207
  N        17.3757404501        3.0352497988        6.7539790774
  C        17.1081124724        1.7173725996        6.4838082493
  N        17.3737364171       13.8536002556       17.5571924843
  C        17.0998349865       12.5364457127       17.2896722710
  N         4.9855839371       19.7157727206        6.7563258648
  C         5.2512362284       21.0346618476        6.4865758115
  N         5.0014045240        8.9002391370       17.5572962828
  C         5.2767034607       10.2168990662       17.2898427567
  N        19.5182514744        6.7541231982        5.1979686258
  C        20.8354748924        6.4857456752        5.4696871163
  N         8.7087133359        6.7263017894       16.0226488955
  C        10.0253141181        6.4550966612       16.2969742031
  N         2.8418380233        6.7529929222       17.5535210492
  C         1.5242343286        6.4827447518       17.2845848499
  N        13.6549220841        6.7187264798        6.7187278066
  C        12.3374262702        6.4490401341        6.4490393502
  N         2.8415240698       16.0020900139        5.1935723184
  C         1.5239671945       16.2708356255        5.4646519692
  N        13.6681860322       16.0296911667       16.0296909866
  C        12.3508603934       16.2993777391       16.2993774115
  N        19.5341493388       16.0042745275       17.5599469656
  C        20.8520213638       16.2750043526       17.2910373056
  N         8.7087137304       16.0226501108        6.7263008575
  C        10.0253112010       16.2969744897        6.4550929021
  N         6.5403441344       17.5750799885        3.0360798602
  C         6.2727205491       17.3030804872        1.7187378670
  N         6.5591792711        6.7338761102       13.8540349560
  C         6.2867141580        6.4682131446       12.5357098734
  N         6.5350567272        5.1941292476       19.7212126133
  C         6.2627413644        5.4661059629       21.0373975728
  N         6.5639432148       16.0091046643        8.8961046571
  C         6.2972738625       16.2783733553       10.2152686675
  N        15.8358306667       17.5673851708       19.7189728673
  C        16.1028035741       17.2935626050       21.0358606727
  N        15.7969723291        6.7371369423        8.8966388503
  C        16.0673492577        6.4717434315       10.2160168122
  N        15.8315721625        5.1868816057        3.0331781832
  C        16.0997554058        5.4602645256        1.7163635919
  N        15.8071337086       16.0124111946       13.8552932272
  C        16.0764380784       16.2809749651       12.5367057752
 Zn        14.5145890281       14.7337340911       14.7337329635
 Cl        13.2454535525       13.5231669437       13.5231692359
 Zn        14.5441051501        3.8838282182        3.8838265056
 Cl        13.3458755347        2.6340766389        2.6340778297
 Zn         3.7018726670       14.7156541146        3.8961167953
 Cl         2.4706725207       13.4807765830        2.6650632644
 Zn         3.7018679785        3.8961165795       14.7156556112
 Cl         2.4706654931        2.6650635366       13.4807800555
 Zn         7.8494558821        8.0145317716       14.7246494834
 Cl         9.0895534400        9.2413813139       13.4986657446
 Zn         7.8298727805       18.8753853798        3.8945371763
 Cl         9.0482086355       20.1178028863        2.6585057719
 Zn        18.6618170666        8.0487583272        3.9014534519
 Cl        19.8963294519        9.2846799927        2.6755219651
 Zn        18.6686577443       18.8479987040       14.7119463927
 Cl        19.8993042449       20.0769722591       13.4732763759
 Zn         7.8494578533       14.7246503121        8.0145318440
 Cl         9.0895566247       13.4986670332        9.2413806152
 Zn         7.8298726604        3.8945382746       18.8753846315
 Cl         9.0482067964        2.6585078656       20.1178047357
 Zn        18.6686585423       14.7119459991       18.8479848978
 Cl        19.8993051401       13.4732816156       20.0769644178
 Zn        18.6618158744        3.9014548985        8.0487562206
 Cl        19.8963310644        2.6755276348        9.2846791684
 Zn        14.5054833639        8.0109450347        8.0109444697
 Cl        13.2355245494        9.2220277648        9.2220258048
 Zn        14.5482991982       18.8722057420       18.8722094844
 Cl        13.3421922159       20.1173372808       20.1173410850
 Zn         3.6985881743        8.0499113363       18.8417191069
 Cl         2.4646699835        9.2876371865       20.0675359613
 Zn         3.6985888065       18.8417186043        8.0499119179
 Cl         2.4646683368       20.0675358676        9.2876354622
 Zn        14.5101070662       14.7431665926        8.0135860022
 Cl        13.2415048200       13.5455518418        9.2391376914
 Zn        14.5465754415        3.8841702690       18.8752353022
 Cl        13.3437306582        2.6339622069       20.1192112226
 Zn         3.7160536789       14.7146281146       18.8538555160
 Cl         2.4813233643       13.4794112340       20.0820709092
 Zn         3.6867826885        3.9005294553        8.0479143598
 Cl         2.4511729256        2.6776056789        9.2855926963
 Zn         7.8427292299        8.0152836110        8.0152875068
 Cl         9.0814762231        9.2429216743        9.2429295594
 Zn         7.8406620498       18.8698800955       18.8698766553
 Cl         9.0635660253       20.1067377126       20.1067330432
 Zn        18.6667597380        8.0458641937       18.8511892080
 Cl        19.9013150437        9.2774807028       20.0822499955
 Zn        18.6667610312       18.8511886784        8.0458609636
 Cl        19.9013100887       20.0822531889        9.2774794555
 Zn        14.5101071406        8.0135854931       14.7431579945
 Cl        13.2415036053        9.2391371783       13.5455442965
 Zn        14.5465770320       18.8752371766        3.8841678698
 Cl        13.3437342143       20.1192114995        2.6339564801
 Zn         3.6867841192        8.0479158164        3.9005311938
 Cl         2.4511759579        9.2855957113        2.6776074828
 Zn         3.7160560407       18.8538442456       14.7146263241
 Cl         2.4813253810       20.0820610654       13.4794105524
 Zn         7.8551341268       14.7275949785       14.7275963090
 Cl         9.0953886448       13.5016982620       13.5016983000
 Zn         7.8087739697        3.8885145780        3.8885154421
 Cl         9.0240092975        2.6468370983        2.6468377888
 Zn        18.6643932184       14.7112123570        3.9010844862
 Cl        19.8955307913       13.4678195394        2.6784024633
 Zn        18.6643923270        3.9010817442       14.7112110558
 Cl        19.8955272381        2.6783921044       13.4678220943
 Zn         5.7767411601        5.9611717691       16.7842200309
 Zn        16.6028207478       16.7849920450       16.7849881623
 Zn        16.5949794765        5.9593477477        5.9593478538
 Zn         5.7767413540       16.7842187761        5.9611725581
 Zn         5.7575804129        5.9606375515        5.9606401838
 Zn        16.6001454612       16.7882052157        5.9588058503
 Zn         5.7847513782       16.7853223103       16.7853236789
 Zn        16.6001412625        5.9588034619       16.7882058918
  N         3.5884348280        5.9730016778       16.7779602368
  N        14.4018143062        5.9418684350        5.9418709827
  N        18.7876469199       16.7814090737       16.7813975847
  N         7.9594513724       16.8012536940        5.9524960847
  N        18.7720655474        5.9749867619        5.9749885134
  N         7.9594518068        5.9524959526       16.8012518148
  N         3.5884354440       16.7779577830        5.9730075240
  N        14.4148389315       16.8069494089       16.8069496574
  N        16.6035257861        3.7805436430        5.9691723320
  N        16.5917374008       14.6008360075       16.7846555635
  N        16.6085322193       18.9716062521       16.7857026817
  N        16.5804102354        8.1519425529        5.9628144361
  N         5.7623004088       18.9719056047        5.9743479439
  N         5.7801513400        8.1515594174       16.7827906885
  N         5.7656813117        3.7819985067       16.7935452315
  N         5.7792288601       14.6003222607        5.9580461569
  N         5.7656835361       16.7935465169        3.7820002322
  N         5.7792263832        5.9580429623       14.6003217663
  N        16.6085351084       16.7857053659       18.9716023055
  N        16.5803964270        5.9627983133        8.1519433396
  N         5.7623007696        5.9743455522       18.9719053704
  N         5.7801518805       16.7827933366        8.1515614225
  N        16.6035281896        5.9691686514        3.7805438368
  N        16.5917451978       16.7846603198       14.6008302462
  N         5.7473163101        3.7802117866        5.9699376114
  N         5.7884885071       14.6013075227       16.7889668030
  N        16.6082004947       18.9732204168        5.9667249646
  N        16.5882881223        8.1506508137       16.7915528829
  N         5.7768515713       18.9739404193       16.7896343821
  N         5.7682952616        8.1505981379        5.9619058505
  N        16.6048526772        3.7794429176       16.7861226998
  N        16.5852701169       14.6025461046        5.9659147127
  N         3.5973770676       16.7829266218       16.7829359594
  N        14.4090195247       16.8116880276        5.9425964555
  N        18.7801182660       16.7814696806        5.9717097275
  N         7.9656477980       16.7999022687       16.7999024647
  N        18.7801165019        5.9717074709       16.7814758491
  N         7.9505110347        5.9490431674        5.9490500906
  N         3.5785393091        5.9747353054        5.9747310612
  N        14.4090190004        5.9425991485       16.8116851968
  N        16.6082027379        5.9667265621       18.9732204626
  N        16.5882912495       16.7915479278        8.1506462812
  N        16.6048610481       16.7861256356        3.7794414151
  N        16.5852478436        5.9658938944       14.6025460578
  N         5.7473140774        5.9699389764        3.7802117282
  N         5.7884938201       16.7889604965       14.6013094299
  N         5.7768496692       16.7896348575       18.9739431003
  N         5.7682959547        5.9619031424        8.1505978254
  C        11.1924922880       15.7470645797       15.7470644589
  H        11.1966895346       14.9714795908       14.9714797333
  C        11.1737168591        4.8845376260        4.8845370308
  H        11.1702312103        4.1090811959        4.1090824912
  C         0.3637502030       15.7213498038        4.9135287125
  H         0.3634856271       14.9464466592        4.1373111944
  C         0.3637346600        4.9135296788       15.7213524863
  H         0.3634884686        4.1373072795       14.9464516117
  C        11.1875029080        7.0022449773       15.7485337269
  H        11.1927079922        7.7768991987       14.9719870132
  C        11.1804717660       17.8699301654        4.8898718923
  H        11.1756154626       18.6470256575        4.1160243122
  C         0.3552643217        7.0370099553        4.9196529333
  H         0.3554608239        7.8128576460        4.1443063232
  C         0.3725548398       17.8416071370       15.7248545180
  H         0.3725369528       18.6167334030       14.9488610742
  C        11.1875057292       15.7485336524        7.0022417155
  H        11.1927064306       14.9719883167        7.7768975314
  C        11.1804753329        4.8898760977       17.8699317031
  H        11.1756164489        4.1160284476       18.6470269434
  C         0.3725021795       15.7248555713       17.8416072681
  H         0.3725404747       14.9488623623       18.6167345616
  C         0.3552939827        4.9196526636        7.0370063532
  H         0.3554554502        4.1443044099        7.8128521415
  C        11.1786083739        7.0011323163        7.0011323489
  H        11.1826588292        7.7767510376        7.7767544753
  C        11.1875490291       17.8638488492       17.8638490680
  H        11.1837737340       18.6393444710       18.6393456237
  C         0.3644221687        7.0339354425       17.8351165777
  H         0.3650045342        7.8108075385       18.6094348370
  C         0.3644085409       17.8351178847        7.0339345451
  H         0.3650041455       18.6094334592        7.8108075015
  C        15.5208246304       11.3753629018       15.7364698212
  H        14.7381848648       11.3746914958       14.9682577617
  C        15.5540031183        0.5567063293        4.9052863259
  H        14.7850876145        0.5561961102        4.1228797184
  C         4.7111275803       11.3767298014        4.9103020586
  H         3.9320518565       11.3772718223        4.1382884958
  C         4.7159824366        0.5570519164       15.7278463198
  H         3.9444201551        0.5562961684       14.9483009626
  C        15.5142039832       11.3777251571        7.0183614862
  H        14.7320362488       11.3778358713        7.7870462082
  C        15.5550637669        0.5550071074       17.8484075552
  H        14.7859065900        0.5542100837       18.6304750290
  C         4.7256570597       11.3768427767       17.8399979525
  H         3.9467013518       11.3766020785       18.6122156865
  C         4.7012237025        0.5544986008        7.0391287350
  H         3.9293684349        0.5535076225        7.8182704522
  C         6.8514036508       11.3762341059       15.7319875695
  H         7.6302435527       11.3766998790       14.9597927231
  C         6.8080693406        0.5578834895        4.9119396233
  H         7.5795905394        0.5592146192        4.1322610379
  C        17.6450757276       11.3771037177        4.9162693013
  H        18.4252472981       11.3768492068        4.1452562900
  C        17.6564588205        0.5563717440       15.7154004131
  H        18.4264576311        0.5571987363       14.9343973590
  C         6.8378934120       11.3743491832        7.0172215995
  H         7.6170211662       11.3739427434        7.7892242205
  C         6.8223573293        0.5593937314       17.8557019375
  H         7.5939383953        0.5601260759       18.6352336364
  C        17.6531193920       11.3764855209       17.8374485373
  H        18.4338086824       11.3770005986       18.6079859921
  C        17.6554843813        0.5573189068        7.0384248844
  H        18.4257702542        0.5577578558        7.8191143652
  C        15.5208264243       15.7364716329       11.3753752644
  H        14.7381888713       14.9682580635       11.3746857214
  C        15.5540084737        4.9052849876        0.5566913112
  H        14.7850934452        4.1228758156        0.5561973392
  C         4.7159833689       15.7278453245        0.5570652498
  H         3.9444224682       14.9483026554        0.5562960432
  C         4.7111239198        4.9103024766       11.3767206840
  H         3.9320466763        4.1382893979       11.3772730699
  C         6.8514064784       15.7319857304       11.3762182720
  H         7.6302463131       14.9597918412       11.3767041031
  C         6.8080706413        4.9119420204        0.5578968350
  H         7.5795928084        4.1322641973        0.5592123007
  C        17.6564605428       15.7154024955        0.5563523516
  H        18.4264629467       14.9343984521        0.5572010890
  C        17.6450801956        4.9162730054       11.3771133368
  H        18.4252397012        4.1452507973       11.3768464506
  C        15.5142068904        7.0183672057       11.3777150104
  H        14.7320300361        7.7870414799       11.3778355226
  C        15.5550688748       17.8484086237        0.5550215068
  H        14.7859135333       18.6304781686        0.5542015950
  C         4.7012229064        7.0391286407        0.5544857165
  H         3.9293668401        7.8182693612        0.5535098320
  C         4.7256592635       17.8399953174       11.3768615643
  H         3.9467022829       18.6122144186       11.3766027474
  C         6.8378930945        7.0172190287       11.3743579848
  H         7.6170214693        7.7892200001       11.3739404231
  C         6.8223597306       17.8557017090        0.5593835667
  H         7.5939411333       18.6352343979        0.5601291863
  C        17.6554843586        7.0384251738        0.5573322667
  H        18.4257712170        7.8191167872        0.5577534011
  C        17.6531235552       17.8374521174       11.3764628795
  H        18.4338124875       18.6079848022       11.3769884735
 Xe        11.2087041783       11.3721054237       11.3721056495
