     409
 i =      96, E =    -5186.5715834857
  N         2.9398463921        5.2023129574       16.0084362528
  C         1.6216085986        5.4728578788       16.2751079696
  N        13.7694589739        5.1651789602        5.1651868834
  C        12.4476489889        5.4243638557        5.4243679418
  N        19.6245156769       17.5565208598       16.0014157482
  C        20.9422156128       17.2895261760       16.2736273694
  N         8.8105765998       17.6258458842        5.1439144291
  C        10.1266134930       17.3467744003        5.4159739304
  N        19.6207568555        5.2040929645        6.7600825689
  C        20.9382993267        5.4756047106        6.4915991368
  N         8.8105722116        5.1439190694       17.6258396592
  C        10.1266024859        5.4159774022       17.3467698351
  N         2.9371481863       17.5654423436        6.7569978020
  C         1.6199556752       17.2917099838        6.4882151696
  N        13.7740397292       17.5866449482       17.5866379301
  C        12.4522490761       17.3272611383       17.3272581189
  N        15.9354378814        3.0340687396        5.1905625635
  C        16.2009138727        1.7177093012        5.4673556432
  N        15.8928142136       13.8583500390       16.0123782903
  C        16.1628206764       12.5396347932       16.2787845464
  N        15.9336503574       19.7230346484       17.5673065959
  C        16.1996164660       21.0397148815       17.2917766249
  N        15.8898394943        8.8971768883        6.7405157775
  C        16.1610418952       10.2165054848        6.4760153827
  N         6.6238294914       19.7305407754        5.1891446438
  C         6.3582491170       21.0460278510        5.4670226448
  N         6.6544110934        8.9006058597       16.0246298586
  C         6.3846438141       10.2207494241       16.2861651062
  N         6.6287865282        3.0395546661       17.5774009038
  C         6.3647808362        1.7237197132       17.2993127387
  N         6.6674305972       13.8628146729        6.7592181503
  C         6.3943817600       12.5439725176        6.4940608208
  N         5.0890035590       16.0059357365        3.0424999115
  C         5.3588133378       16.2734962044        1.7244672942
  N         5.1035196132        5.2115739759       13.8627483446
  C         5.3724692830        5.4838090774       12.5450243394
  N        17.4760927695       15.9990547775       19.7200346999
  C        17.2074626157       16.2677605824       21.0387027942
  N        17.4577879254        5.1970595854        8.9015029594
  C        17.1845528763        5.4674836738       10.2178690385
  N         5.0831004767        6.7602519987       19.7267287620
  C         5.3522917834        6.4929562949       21.0446748364
  N         5.0906428458       17.5711196183        8.9080709207
  C         5.3625349299       17.2959918735       10.2244015887
  N        17.4769840507        6.7599667820        3.0373956696
  C        17.2079362108        6.4920724874        1.7189604340
  N        17.4607801539       17.5561922178       13.8550509439
  C        17.1864201185       17.2871934243       12.5384182569
  N         5.0821546514        3.0419220807        6.7605077595
  C         5.3514285931        1.7238593807        6.4934670058
  N         5.0966724202       13.8631686375       17.5651957873
  C         5.3656103962       12.5457410851       17.2927607407
  N        17.4763380032       19.7187857355        6.7623989513
  C        17.2080695292       21.0375430324        6.4935838544
  N        17.4577106796        8.9021665025       17.5550216292
  C        17.1842605607       10.2187750585       17.2862765140
  N         5.0901825195       19.7268349783       16.0080809083
  C         5.3597721693       21.0448902039       16.2748871191
  N         5.0975553286        8.9070793215        5.2035270397
  C         5.3693940378       10.2233134788        5.4797225792
  N        17.4755487398        3.0384211021       16.0003032375
  C        17.2067095551        1.7200911158       16.2687127569
  N        17.4609804522       13.8541094450        5.1978491926
  C        17.1867967523       12.5375581802        5.4675765554
  N         2.9404373079       16.0123298550       17.5679435205
  C         1.6227439884       16.2789314464       17.2948651703
  N        13.7498125719       16.0275869625        6.7216730116
  C        12.4363719231       16.3094045665        6.4415560783
  N        19.6236132384       15.9995669223        5.2026948834
  C        20.9408995629       16.2706887095        5.4731533276
  N         8.7973600799       16.0667610262       16.0667720624
  C        10.1184781538       16.3284621405       16.3284715513
  N        19.6214336861        6.7590342052       17.5541904642
  C        20.9393976686        6.4892387215       17.2864364959
  N         8.7945416074        6.6865763369        6.6865664296
  C        10.1152317420        6.4240910491        6.4240826916
  N         2.9365855802        6.7603841715        5.2043680638
  C         1.6189461403        6.4916851547        5.4756683105
  N        13.7498106499        6.7216772053       16.0275844696
  C        12.4363618061        6.4415591348       16.3094025515
  N        15.9350247799        5.1931402194       19.7224533054
  C        16.2010293110        5.4688099663       21.0388461299
  N        15.8893845120       16.0118685094        8.8987886795
  C        16.1604570076       16.2780570688       10.2178073416
  N        15.9322756751       17.5681095994        3.0358392262
  C        16.1986560878       17.2924500891        1.7191870351
  N        15.8936614530        6.7423408204       13.8572895067
  C        16.1636196249        6.4764272518       12.5384569928
  N         6.6203708677        5.1871846177        3.0376303875
  C         6.3563476568        5.4667057380        1.7224450511
  N         6.6599975232       16.0175687062       13.8641390931
  C         6.3874149861       16.2824510698       12.5450434766
  N         6.6321462703       17.5779516983       19.7307154940
  C         6.3665732154       17.3000176672       21.0464616144
  N         6.6629019569        6.7488156213        8.8989588791
  C         6.3920151213        6.4890237320       10.2190671413
  N        19.6214371493       17.5541870303        6.7590306866
  C        20.9393948137       17.2864337277        6.4892364565
  N         8.8140265435       17.6206436082       17.6206378175
  C        10.1296699333       17.3443339698       17.3443320103
  N         2.9365862669        5.2043693260        6.7603832552
  C         1.6189466906        5.4756695219        6.4916840130
  N        13.7709993843        5.1715102889       17.5894369350
  C        12.4493277690        5.4300258778       17.3287556703
  N         2.9404369194       17.5679475948       16.0123270913
  C         1.6227438631       17.2948673384       16.2789299915
  N        13.7710027675       17.5894337388        5.1715134016
  C        12.4493383779       17.3287539335        5.4300277079
  N        19.6236101459        5.2026921143       15.9995641239
  C        20.9409028433        5.4731522393       16.2706881983
  N         8.8084370662        5.1328172188        5.1328251542
  C        10.1246816592        5.4082170791        5.4082208541
  N         6.6321434283       19.7307190636       17.5779521896
  C         6.3665703892       21.0464689877       17.3000193862
  N         6.6628999979        8.8989641884        6.7488188464
  C         6.3920012378       10.2190686183        6.4890359882
  N         6.6203664163        3.0376284072        5.1871858837
  C         6.3563436292        1.7224473344        5.4667071657
  N         6.6600023879       13.8641381001       16.0175638424
  C         6.3874196019       12.5450393215       16.2824497336
  N        15.9322731688        3.0358383120       17.5681109940
  C        16.1986550271        1.7191838442       17.2924506232
  N        15.8936644346       13.8572905873        6.7423396655
  C        16.1636210279       12.5384607609        6.4764271849
  N        15.9350280578       19.7224512405        5.1931412325
  C        16.2010312432       21.0388414718        5.4688104791
  N        15.8893813166        8.8987901341       16.0118675207
  C        16.1604556338       10.2178115320       16.2780571068
  N        17.4763398848        6.7624023699       19.7187878198
  C        17.2080688551        6.4935840102       21.0375479142
  N        17.4577090956       17.5550178619        8.9021652898
  C        17.1842609413       17.2862756599       10.2187711310
  N         5.0821559662        6.7605074455        3.0419250532
  C         5.3514285805        6.4934681531        1.7238578789
  N         5.0966697396       17.5651995967       13.8631659189
  C         5.3656091045       17.2927593741       12.5457426759
  N        17.4755463514       16.0003064649        3.0384212876
  C        17.2067097874       16.2687130483        1.7200941178
  N        17.4609825983        5.1978460932       13.8541086446
  C        17.1867963238        5.4675762151       12.5375547626
  N         5.0901868480       16.0080818838       19.7268330759
  C         5.3597776849       16.2748880159       21.0448837552
  N         5.0975572292        5.2035208919        8.9070755421
  C         5.3694064787        5.4797063401       10.2233123442
  N        17.4760921142       19.7200372445       15.9990557228
  C        17.2074615605       21.0387014813       16.2677617974
  N        17.4577893448        8.9015011548        5.1970584403
  C        17.1845549380       10.2178708566        5.4674823367
  N         5.0890035852        3.0425045727       16.0059362520
  C         5.3588097307        1.7244759425       16.2734954075
  N         5.1035168547       13.8627493333        5.2115715802
  C         5.3724575640       12.5450226845        5.4838210697
  N        17.4769856521        3.0373961853        6.7599684274
  C        17.2079386895        1.7189573806        6.4920746309
  N        17.4607791750       13.8550499277       17.5561914717
  C        17.1864183028       12.5384206134       17.2871921952
  N         5.0831010651       19.7267281030        6.7602539240
  C         5.3522922380       21.0446781096        6.4929564362
  N         5.0906419850        8.9080698373       17.5711220261
  C         5.3625351871       10.2243976518       17.2959956555
  N        19.6207560172        6.7600823747        5.2040933453
  C        20.9382989851        6.4915992678        5.4756047863
  N         8.7956297235        6.6912344840       16.0653240699
  C        10.1164913427        6.4278160952       16.3268282042
  N         2.9371447606        6.7569957557       17.5654437394
  C         1.6199585784        6.4882141866       17.2917113943
  N        13.7482440453        6.7206709098        6.7206639961
  C        12.4348213871        6.4397150909        6.4397079429
  N         2.9398497134       16.0084294032        5.2023073235
  C         1.6216049837       16.2751038768        5.4728553501
  N        13.7516867687       16.0301832743       16.0301882201
  C        12.4384264876       16.3117086632       16.3117150104
  N        19.6245154411       16.0014155410       17.5565206685
  C        20.9422159663       16.2736281223       17.2895251940
  N         8.7956329026       16.0653226468        6.6912371666
  C        10.1165020728       16.3268283416        6.4278164568
  N         6.6287924125       17.5774055143        3.0395478978
  C         6.3647860603       17.2993147346        1.7237106338
  N         6.6674264766        6.7592159313       13.8628140420
  C         6.3943920719        6.4940498763       12.5439740373
  N         6.6238239940        5.1891495251       19.7305388380
  C         6.3582475030        5.4670249010       21.0460232868
  N         6.6544177614       16.0246216676        8.9006093677
  C         6.3846445424       16.2861602600       10.2207559002
  N        15.9336483438       17.5673055707       19.7230329701
  C        16.1996147058       17.2917769161       21.0397162118
  N        15.8898382839        6.7405147277        8.8971779547
  C        16.1610415366        6.4760141590       10.2165035410
  N        15.9354364401        5.1905633173        3.0340687891
  C        16.2009131367        5.4673562598        1.7177124673
  N        15.8928132812       16.0123780383       13.8583510816
  C        16.1628200153       16.2787836683       12.5396322164
 Zn        14.5972021479       14.7272534593       14.7272537792
 Cl        13.3804827169       13.4875857674       13.4875881799
 Zn        14.6531536876        3.8854454546        3.8854469485
 Cl        13.4328302405        2.6460662845        2.6460676302
 Zn         3.8029792819       14.7155929089        3.9129297167
 Cl         2.5846502694       13.4598747416        2.6906718814
 Zn         3.8029781160        3.9129385028       14.7155934982
 Cl         2.5846499053        2.6906740239       13.4598796176
 Zn         7.9575855098        7.9986396356       14.7843713638
 Cl         9.4292602543        9.1573428174       13.7776753537
 Zn         7.9115969106       18.8977436607        3.8716943186
 Cl         9.0904356704       20.1566682973        2.6148398037
 Zn        18.7620698403        8.0532201244        3.9080062788
 Cl        19.9991551723        9.2910532441        2.6862467759
 Zn        18.7627002924       18.8441185310       14.7097762548
 Cl        19.9983307965       20.0673193789       13.4702931408
 Zn         7.9575917977       14.7843689170        7.9986414127
 Cl         9.4292681064       13.7776710854        9.1573400521
 Zn         7.9115905251        3.8717020140       18.8977372272
 Cl         9.0904261760        2.6148453552       20.1566636468
 Zn        18.7627004897       14.7097759479       18.8441171476
 Cl        19.9983309742       13.4702935689       20.0673187255
 Zn        18.7620700230        3.9080067896        8.0532213022
 Cl        19.9991548000        2.6862465972        9.2910543313
 Zn        14.5943189824        8.0191537098        8.0191529936
 Cl        13.3748678835        9.2587202296        9.2587162927
 Zn        14.6520008489       18.8732023418       18.8732012891
 Cl        13.4251608623       20.1088325072       20.1088335165
 Zn         3.7921488363        8.0518998256       18.8620516853
 Cl         2.5637141814        9.2910317788       20.0904395176
 Zn         3.7921495938       18.8620508102        8.0519015340
 Cl         2.5637151845       20.0904391465        9.2910324830
 Zn        14.5961347900       14.7262332870        8.0214682676
 Cl        13.3775480276       13.4878864106        9.2618587431
 Zn        14.6513795156        3.8901601592       18.8753576659
 Cl        13.4266987790        2.6508883698       20.1099361351
 Zn         3.7988581155       14.7186810449       18.8600157792
 Cl         2.5756850402       13.4738504966       20.0885180476
 Zn         3.7954861478        3.9097904039        8.0540592637
 Cl         2.5724331570        2.6878658434        9.3046873860
 Zn         7.9606196696        7.9797537753        7.9797502324
 Cl         9.4398966546        9.0601527725        9.0602093851
 Zn         7.9193515277       18.8936028669       18.8936001864
 Cl         9.1030358058       20.1493124905       20.1493122516
 Zn        18.7612732689        8.0545949092       18.8416085341
 Cl        19.9971102222        9.2905639722       20.0677165111
 Zn        18.7612738508       18.8416043437        8.0545919359
 Cl        19.9971083945       20.0677140210        9.2905618633
 Zn        14.5961305743        8.0214704787       14.7262319319
 Cl        13.3775465712        9.2618619621       13.4878840407
 Zn        14.6513838412       18.8753554473        3.8901614939
 Cl        13.4267000393       20.1099323863        2.6508909851
 Zn         3.7954880263        8.0540609155        3.9097900359
 Cl         2.5724348158        9.3046894464        2.6878662215
 Zn         3.7988564912       18.8600196361       14.7186798701
 Cl         2.5756828685       20.0885217275       13.4738500226
 Zn         7.9558106707       14.7740270386       14.7740249445
 Cl         9.4188701829       13.6829468579       13.6828924529
 Zn         7.9047628223        3.8601894967        3.8601928947
 Cl         9.0781360624        2.6005811825        2.6005811866
 Zn        18.7629951450       14.7103256218        3.9073665534
 Cl        19.9993569726       13.4696035587        2.6872593813
 Zn        18.7629954585        3.9073640520       14.7103233484
 Cl        19.9993595388        2.6872575037       13.4696036273
 Zn         5.8724877340        5.9592487779       16.8146965220
 Zn        16.6874645330       16.7823532201       16.7823530333
 Zn        16.6879302301        5.9648725494        5.9648734655
 Zn         5.8725023355       16.8146974962        5.9592455329
 Zn         5.8675699071        5.9548780461        5.9548786416
 Zn        16.6867092737       16.7819134815        5.9670496220
 Zn         5.8772538498       16.8120141149       16.8120101058
 Zn        16.6867067890        5.9670499425       16.7819139456
  N         3.6852964251        5.9791749941       16.7887492014
  N        14.5052980619        5.9483226399        5.9483242712
  N        18.8777546189       16.7774632831       16.7774616298
  N         8.0570442573       16.8489102562        5.9171528704
  N        18.8743142996        5.9812447374        5.9812460646
  N         8.0570383242        5.9171557517       16.8489056665
  N         3.6852999508       16.7887473889        5.9791758033
  N        14.5089694810       16.8028467402       16.8028442081
  N        16.7068927696        3.7823295924        5.9725361669
  N        16.6778695534       14.6028902179       16.7847575974
  N        16.7052109860       18.9746693823       16.7853481388
  N        16.6745086961        8.1528664708        5.9672500886
  N         5.8525350287       18.9828242286        5.9712395471
  N         5.8724209328        8.1574980074       16.8020884087
  N         5.8574193271        3.7871318019       16.7952726007
  N         5.8862314400       14.6099398526        5.9823842060
  N         5.8574247592       16.7952784076        3.7871273602
  N         5.8862233388        5.9823919461       14.6099370551
  N        16.7052089782       16.7853481996       18.9746690513
  N        16.6745082002        5.9672494393        8.1528662555
  N         5.8525309774        5.9712409732       18.9828245389
  N         5.8724231619       16.8020866025        8.1574981822
  N        16.7068916654        5.9725360574        3.7823311080
  N        16.6778698271       16.7847582811       14.6028893495
  N         5.8498985843        3.7858028732        5.9696440639
  N         5.8793825025       14.6106767289       16.7943792399
  N        16.7058284549       18.9737267114        5.9754514714
  N        16.6745434324        8.1540372767       16.7841164716
  N         5.8600602293       18.9828803744       16.7965455998
  N         5.8797280469        8.1561122911        5.9711907800
  N        16.7043326455        3.7837406221       16.7863193338
  N        16.6781028171       14.6019107895        5.9692533665
  N         3.6874237071       16.7917529139       16.7917533762
  N        14.5066721709       16.8033068320        5.9520141528
  N        18.8758589148       16.7760075901        5.9807727448
  N         8.0596706798       16.8460669095       16.8460685562
  N        18.8758564732        5.9807739953       16.7760084472
  N         8.0552743731        5.9080712071        5.9080713943
  N         3.6832377612        5.9816436126        5.9816401134
  N        14.5066674640        5.9520140722       16.8033081597
  N        16.7058247284        5.9754500163       18.9737278979
  N        16.6745467382       16.7841169097        8.1540367125
  N        16.7043365209       16.7863165882        3.7837402786
  N        16.6780993857        5.9692550128       14.6019106447
  N         5.8499004336        5.9696440533        3.7858033389
  N         5.8793815261       16.7943828952       14.6106769055
  N         5.8600607577       16.7965437223       18.9828756434
  N         5.8797251121        5.9711932144        8.1561089776
  C        11.2716929849       15.7704695892       15.7704851481
  H        11.2538565962       14.9951813457       14.9952057822
  C        11.2937206965        4.8660930523        4.8661020436
  H        11.3074409484        4.0908995727        4.0909148169
  C         0.4622004197       15.7218683918        4.9231654831
  H         0.4626929125       14.9454008148        4.1485529264
  C         0.4621946988        4.9231663432       15.7218701479
  H         0.4626922789        4.1485539264       14.9454024512
  C        11.2702471529        6.9817792967       15.7661041891
  H        11.2535515434        7.7565417326       14.9903554456
  C        11.2954105782       17.8898548079        4.8745964450
  H        11.3087924891       18.6679696905        4.1022442054
  C         0.4585621354        7.0425622954        4.9257184023
  H         0.4578877780        7.8185251709        4.1505473427
  C         0.4624519244       17.8423955255       15.7254935411
  H         0.4617444493       18.6173532828       14.9493169257
  C        11.2702458256       15.7661047804        6.9817776817
  H        11.2535547550       14.9903552035        7.7565396995
  C        11.2954108825        4.8745973110       17.8898528658
  H        11.3087847089        4.1022446961       18.6679675549
  C         0.4624532269       15.7254941514       17.8423941724
  H         0.4617451159       14.9493175816       18.6173517326
  C         0.4585628082        4.9257190381        7.0425613454
  H         0.4578901437        4.1505477349        7.8185241217
  C        11.2689976741        6.9814595164        6.9814428265
  H        11.2523778757        7.7567298962        7.7567016795
  C        11.2988604037       17.8860476332       17.8860402509
  H        11.3125288575       18.6613100962       18.6612960645
  C         0.4586873072        7.0393228142       17.8394024706
  H         0.4567495467        7.8149477804       18.6149546209
  C         0.4586951257       17.8394003166        7.0393219764
  H         0.4567522630       18.6149523289        7.8149464488
  C        15.6074718043       11.3793725572       15.7316762370
  H        14.8276947048       11.3807866761       14.9602978566
  C        15.6539704377        0.5579614238        4.9136632930
  H        14.8844020893        0.5577484304        4.1319798610
  C         4.8178724102       11.3858372551        4.9353300087
  H         4.0399413107       11.3884191019        4.1618605407
  C         4.8145302360        0.5642010708       15.7172741231
  H         4.0457298784        0.5631847275       14.9352401933
  C        15.6083163095       11.3779020056        7.0233773430
  H        14.8285122828       11.3789672441        7.7948751479
  C        15.6517810933        0.5591183309       17.8459390928
  H        14.8813094447        0.5588250398       18.6266847280
  C         4.8112543601       11.3864849247       17.8413587514
  H         4.0339551957       11.3888090574       18.6153148526
  C         4.8073176657        0.5639609359        7.0506046423
  H         4.0387613420        0.5632547707        7.8329031979
  C         6.9400306665       11.3813826039       15.7388798744
  H         7.7291122705       11.3771646395       14.9780665305
  C         6.9039832652        0.5645216815        4.9110121380
  H         7.6707303848        0.5653185037        4.1262320189
  C        17.7398931800       11.3772550844        4.9212387877
  H        18.5205738587       11.3766436596        4.1509765395
  C        17.7524494636        0.5597664418       15.7127990284
  H        18.5220480285        0.5607121210       14.9315037185
  C         6.9464498874       11.3798436146        7.0370516669
  H         7.7331760618       11.3753603039        7.7998201557
  C         6.9127597956        0.5656551656       17.8548636304
  H         7.6803565804        0.5667595935       18.6387732153
  C        17.7398698511       11.3779458902       17.8330529345
  H        18.5211223406       11.3770088501       18.6028974076
  C        17.7528986774        0.5586263455        7.0487433222
  H        18.5219941252        0.5595114747        7.8304905370
  C        15.6074725333       15.7316760655       11.3793743638
  H        14.8276951034       14.9602973092       11.3807856267
  C        15.6539688588        4.9136631060        0.5579599738
  H        14.8844010004        4.1319799905        0.5577497280
  C         4.8145346739       15.7172740922        0.5641989579
  H         4.0457347895       14.9352399685        0.5631813701
  C         4.8178894340        4.9353122139       11.3858330589
  H         4.0399591240        4.1618409443       11.3884166319
  C         6.9400290141       15.7388769851       11.3813848104
  H         7.7291111912       14.9780645416       11.3771727436
  C         6.9039843661        4.9110133167        0.5645231454
  H         7.6707319387        4.1262329954        0.5653149054
  C        17.7524501585       15.7127990020        0.5597644212
  H        18.5220490297       14.9315039155        0.5607112852
  C        17.7398923585        4.9212392071       11.3772564912
  H        18.5205732188        4.1509771917       11.3766433018
  C        15.6083149006        7.0233771057       11.3779042881
  H        14.8285111872        7.7948744778       11.3789669626
  C        15.6517811469       17.8459384894        0.5591156753
  H        14.8813090061       18.6266844462        0.5588258809
  C         4.8073174319        7.0506044144        0.5639657651
  H         4.0387601661        7.8329024158        0.5632573696
  C         4.8112530367       17.8413561626       11.3864797467
  H         4.0339548532       18.6153122624       11.3888052194
  C         6.9464645539        7.0370366605       11.3798387256
  H         7.7331909928        7.7998056506       11.3753561536
  C         6.9127643973       17.8548635586        0.5656525664
  H         7.6803612315       18.6387726413        0.5667520436
  C        17.7528977592        7.0487424680        0.5586261365
  H        18.5219936091        7.8304894855        0.5595134331
  C        17.7398705657       17.8330527391       11.3779471761
  H        18.5211229360       18.6028971461       11.3770078239
 Kr         9.4473411917       11.3646164432       11.3646162796
