 DBCSR| CPU Multiplication driver                                           XSMM (U)
 DBCSR| Multrec recursion limit                                              512 (U)
 DBCSR| Multiplication stack size                                           1000 (D)
 DBCSR| Maximum elements for images                                    UNLIMITED (U)
 DBCSR| Multiplicative factor virtual images                                   1 (U)
 DBCSR| Use multiplication densification                                       T (D)
 DBCSR| Multiplication size stacks                                             3 (U)
 DBCSR| Use memory pool for CPU allocation                                     F (U)
 DBCSR| Number of 3D layers                                               SINGLE (U)
 DBCSR| Use MPI memory allocation                                              F (U)
 DBCSR| Use RMA algorithm                                                      F (U)
 DBCSR| Use Communication thread                                               T (U)
 DBCSR| Communication thread load                                             87 (D)
 DBCSR| MPI: My process id                                                     0
 DBCSR| MPI: Number of processes                                             144
 DBCSR| OMP: Current number of threads                                         1
 DBCSR| OMP: Max number of threads                                             1
 DBCSR| Split modifier for TAS multiplication algorithm                  1.0E+00 (U)


  **** **** ******  **  PROGRAM STARTED AT               2024-09-13 00:51:21.074
 ***** ** ***  *** **   PROGRAM STARTED ON                              nid04440
 **    ****   ******    PROGRAM STARTED BY                              bsertcan
 ***** **    ** ** **   PROGRAM PROCESS ID                                 27309
  **** **  *******  **  PROGRAM STARTED IN /scratch/snx3000/bsertcan/MFU_sp/br/x
                                           e/rep40

 CP2K| version string:                 CP2K version 2024.2 (Development Version)
 CP2K| source code revision number:                                  git:42d1e6b
 CP2K| cp2kflags: omp libint fftw3 libxc parallel scalapack xsmm                
 CP2K| is freely available from                            https://www.cp2k.org/
 CP2K| Program compiled at                         Tue Sep  3 22:59:39 CEST 2024
 CP2K| Program compiled on                                              daint106
 CP2K| Program compiled for                                                local
 CP2K| Data directory path                             /users/bsertcan/cp2k/data
 CP2K| Input file name                                                 input.inp

 GLOBAL| Force Environment number                                              1
 GLOBAL| Basis set file name                                    BASIS_MOLOPT_UZH
 GLOBAL| Potential file name                                       POTENTIAL_UZH
 GLOBAL| MM Potential file name                                     MM_POTENTIAL
 GLOBAL| Coordinate file name                                         rep_40.xyz
 GLOBAL| Method name                                                        CP2K
 GLOBAL| Project name                                                 Replica_40
 GLOBAL| Run type                                                         ENERGY
 GLOBAL| FFT library                                                       FFTW3
 GLOBAL| Diagonalization library                                       ScaLAPACK
 GLOBAL| DGEMM library                                                      BLAS
 GLOBAL| Orthonormality check for eigenvectors                          DISABLED
 GLOBAL| Matrix multiplication library                                 ScaLAPACK
 GLOBAL| All-to-all communication in single precision                          F
 GLOBAL| FFTs using library dependent lengths                                  F
 GLOBAL| Grid backend                                                       AUTO
 GLOBAL| Global print level                                                  LOW
 GLOBAL| MPI I/O enabled                                                       T
 GLOBAL| Total number of message passing processes                           144
 GLOBAL| Number of threads for this process                                    1
 GLOBAL| This output is from process                                           0
 GLOBAL| Stack size for threads created by OpenMP (OMP_STACKSIZE)             5M
 GLOBAL| CPU model name                Intel(R) Xeon(R) CPU E5-2690 v3 @ 2.60GHz
 GLOBAL| CPUID                                                              1002

 MEMORY| system memory details [Kb]
 MEMORY|                        rank 0           min           max       average
 MEMORY| MemTotal             65740148      65740148      65740148      65740148
 MEMORY| MemFree              60852372      60852372      60968348      60932325
 MEMORY| Buffers                  8424          6652          8424          7291
 MEMORY| Cached                1897768       1803052       1897768       1835495
 MEMORY| Slab                   222500        214944        222500        216187
 MEMORY| SReclaimable            49132         47636         49132         48092
 MEMORY| MemLikelyFree        62807696      62782676      62839584      62823204


 *******************************************************************************
 *******************************************************************************
 **                                                                           **
 **     #####                         ##              ##                      **
 **    ##   ##            ##          ##              ##                      **
 **   ##     ##                       ##            ######                    **
 **   ##     ##  ##   ##  ##   #####  ##  ##   ####   ##    #####    #####    **
 **   ##     ##  ##   ##  ##  ##      ## ##   ##      ##   ##   ##  ##   ##   **
 **   ##  ## ##  ##   ##  ##  ##      ####     ###    ##   ######   ######    **
 **    ##  ###   ##   ##  ##  ##      ## ##      ##   ##   ##       ##        **
 **     #######   #####   ##   #####  ##  ##  ####    ##    #####   ##        **
 **           ##                                                    ##        **
 **                                                                           **
 **                                                ... make the atoms dance   **
 **                                                                           **
 **            Copyright (C) by CP2K developers group (2000-2024)             **
 **                      J. Chem. Phys. 152, 194103 (2020)                    **
 **                                                                           **
 *******************************************************************************


 TOTAL NUMBERS AND MAXIMUM NUMBERS

  Total number of            - Atomic kinds:                                   6
                             - Atoms:                                        409
                             - Shell sets:                                   409
                             - Shells:                                      3617
                             - Primitive Cartesian functions:               2053
                             - Cartesian basis functions:                  13634
                             - Spherical basis functions:                  11621

  Maximum angular momentum of- Orbital basis functions:                        3
                             - Local part of the GTH pseudopotential:          2
                             - Non-local part of the GTH pseudopotential:      4

  AUX_FIT ADMM-Basis: 
  Total number of            - Shell sets:                                  2799
                             - Shells:                                      2799
                             - Primitive Cartesian functions:               3609
                             - Cartesian basis functions:                   7546
                             - Spherical basis functions:                   6985
                               Maximum angular momentum                        3


 SCF PARAMETERS         Density guess:                                   RESTART
                        --------------------------------------------------------
                        max_scf:                                              10
                        max_scf_history:                                       0
                        max_diis:                                              4
                        --------------------------------------------------------
                        eps_scf:                                        1.00E-06
                        eps_scf_history:                                0.00E+00
                        eps_diis:                                       1.00E-01
                        eps_eigval:                                     1.00E-05
                        --------------------------------------------------------
                        level_shift [a.u.]:                             0.000000
                        --------------------------------------------------------
                        Outer loop SCF in use 
                        No variables optimised in outer loop
                        eps_scf                                         1.00E-06
                        max_scf                                               10
                        No outer loop optimization
                        step_size                                       5.00E-01

  HFX_INFO| Replica ID:                                                        1
  HFX_INFO| FRACTION:                                               0.2500000000
  HFX_INFO| Interaction Potential:                                     TRUNCATED
  HFX_INFO| Cutoff Radius [angstrom]:                               6.0000000000
  HFX_INFO| EPS_SCHWARZ:                                                 1.0E-08
  HFX_INFO| EPS_SCHWARZ_FORCES                                           1.0E-06
  HFX_INFO| EPS_STORAGE_SCALING:                                         1.0E+00
  HFX_INFO| NBINS:                                                            64
  HFX_INFO| BLOCK_SIZE:                                                        5
  HFX_INFO| NUMBER_OF_SHELLS:                                               AUTO
  HFX_INFO| Number of periodic shells considered:                             -1
  HFX_INFO| Number of periodic cells considered:                              27


 Number of electrons:                                                       2056
 Number of occupied orbitals:                                               1028
 Number of molecular orbitals:                                              1028

 Number of orbital functions:                                              11621
 Number of independent orbital functions:                                  11621

 Extrapolation method: initial_guess

 *** WARNING in qs_initial_guess.F:306 :: User requested to restart the   ***
 *** wavefunction from the file named: Replica_40-RESTART.wfn. This file  ***
 *** does not exist. Please check the existence of the file or change     ***
 *** properly the value of the keyword WFN_RESTART_FILE_NAME. Calculation ***
 *** continues using ATOMIC GUESS.                                        ***



 SCF WAVEFUNCTION OPTIMIZATION

  ----------------------------------- OT ---------------------------------------
  Minimizer      : DIIS                : direct inversion
                                         in the iterative subspace
                                         using   7 DIIS vectors
                                         safer DIIS on
  Preconditioner : FULL_SINGLE_INVERSE : inversion of 
                                         H + eS - 2*(Sc)(c^T*H*c+const)(Sc)^T
  Precond_solver : DEFAULT
  stepsize       :    0.08000000                  energy_gap     :    0.08000000
  eps_taylor     :   0.10000E-15                  max_taylor     :             4
  ----------------------------------- OT ---------------------------------------

  Step     Update method      Time    Convergence         Total energy    Change
  ------------------------------------------------------------------------------

  HFX_MEM_INFO| Est. max. program size before HFX [MiB]:                     456

 *** WARNING in hfx_energy_potential.F:587 :: The Kohn Sham matrix is not ***
 *** 100% occupied. This may result in incorrect Hartree-Fock results.    ***
 *** Setting MIN_PAIR_LIST_RADIUS to -1 in the QS section ensures a fully ***
 *** occupied KS matrix. For more information see FAQ:                    ***
 *** https://www.cp2k.org/faq:hfx_eps_warning                             ***

  HFX_MEM_INFO| Number of cart. primitive ERI's calculated:         607758344897
  HFX_MEM_INFO| Number of sph. ERI's calculated:                    322287009321
  HFX_MEM_INFO| Number of sph. ERI's stored in-core:                315188952500
  HFX_MEM_INFO| Number of sph. ERI's stored on disk:                           0
  HFX_MEM_INFO| Number of sph. ERI's calculated on the fly:                    0
  HFX_MEM_INFO| Total memory consumption ERI's RAM [MiB]:                 278185
  HFX_MEM_INFO| Whereof max-vals [MiB]:                                     4914
  HFX_MEM_INFO| Total compression factor ERI's RAM:                         8.64
  HFX_MEM_INFO| Total memory consumption ERI's disk [MiB]:                     0
  HFX_MEM_INFO| Total compression factor ERI's disk:                        0.00
  HFX_MEM_INFO| Size of density/Fock matrix [MiB]:                           152
  HFX_MEM_INFO| Size of buffers [MiB]:                                        79
  HFX_MEM_INFO| Number of periodic image cells considered:                    27
  HFX_MEM_INFO| Est. max. program size after HFX  [MiB]:                    2637

     1 OT DIIS     0.80E-01  234.0     0.01151136     -4957.8002150785 -4.96E+03
     2 OT DIIS     0.80E-01   37.3     0.00707043     -5035.9660251078 -7.82E+01
     3 OT DIIS     0.80E-01   37.6     0.00658429     -5074.2828453392 -3.83E+01
     4 OT DIIS     0.80E-01   37.7     0.00612820     -5095.2751246160 -2.10E+01
     5 OT DIIS     0.80E-01   38.1     0.00344434     -5135.4271688239 -4.02E+01
     6 OT DIIS     0.80E-01   37.2     0.00267428     -5147.8821440918 -1.25E+01
     7 OT DIIS     0.80E-01   37.3     0.00199904     -5157.3178320589 -9.44E+00
     8 OT DIIS     0.80E-01   37.2     0.00135026     -5164.5209360898 -7.20E+00
     9 OT DIIS     0.80E-01   37.3     0.00118079     -5166.9348234792 -2.41E+00
    10 OT DIIS     0.80E-01   37.1     0.00082198     -5169.9414959386 -3.01E+00

  Leaving inner SCF loop after reaching    10 steps.


  Electronic density on regular grids:      -2055.9999999835        0.0000000165
  Core density on regular grids:             2055.9999998392       -0.0000001608
  Total charge density on r-space grids:       -0.0000001442
  Total charge density g-space grids:          -0.0000001442

  Overlap energy of the core charge distribution:               0.00004743305796
  Self energy of the core charge distribution:              -9694.22645242353974
  Core Hamiltonian energy:                                   2875.82297094867727
  Hartree energy:                                            2710.82992649293965
  Exchange-correlation energy:                               -834.90684384514202
  Hartree-Fock Exchange energy:                              -226.57886480008415
  Dispersion energy:                                           -0.88227974450581

  Total energy:                                             -5169.94149593859856

  outer SCF iter =    1 RMS gradient =   0.82E-03 energy =      -5169.9414959386

  ----------------------------------- OT ---------------------------------------
  Minimizer      : DIIS                : direct inversion
                                         in the iterative subspace
                                         using   7 DIIS vectors
                                         safer DIIS on
  Preconditioner : FULL_SINGLE_INVERSE : inversion of 
                                         H + eS - 2*(Sc)(c^T*H*c+const)(Sc)^T
  Precond_solver : DEFAULT
  stepsize       :    0.08000000                  energy_gap     :    0.08000000
  eps_taylor     :   0.10000E-15                  max_taylor     :             4
  ----------------------------------- OT ---------------------------------------

  Step     Update method      Time    Convergence         Total energy    Change
  ------------------------------------------------------------------------------
     1 OT DIIS     0.80E-01   77.1     0.00130827     -5171.1114235544 -1.17E+00
     2 OT DIIS     0.80E-01   37.1     0.00111713     -5172.6185492258 -1.51E+00
     3 OT DIIS     0.80E-01   37.3     0.00057062     -5174.7092381819 -2.09E+00
     4 OT DIIS     0.80E-01   37.1     0.00042541     -5175.0481238457 -3.39E-01
     5 OT DIIS     0.80E-01   37.2     0.00037226     -5175.1566378907 -1.09E-01
     6 OT DIIS     0.80E-01   37.2     0.00027441     -5175.2493650297 -9.27E-02
     7 OT DIIS     0.80E-01   37.2     0.00027449     -5175.2952301691 -4.59E-02
     8 OT SD       0.80E-01   37.1     0.00027604     -5175.2989566574 -3.73E-03
     9 OT SD       0.80E-01   37.3     0.00027746     -5175.3720783138 -7.31E-02
    10 OT SD       0.80E-01   37.1     0.00023742     -5175.4402602692 -6.82E-02

  Leaving inner SCF loop after reaching    10 steps.


  Electronic density on regular grids:      -2055.9999999835        0.0000000165
  Core density on regular grids:             2055.9999998392       -0.0000001608
  Total charge density on r-space grids:       -0.0000001442
  Total charge density g-space grids:          -0.0000001442

  Overlap energy of the core charge distribution:               0.00004743305796
  Self energy of the core charge distribution:              -9694.22645242353974
  Core Hamiltonian energy:                                   2871.94200499181443
  Hartree energy:                                            2710.98262315294187
  Exchange-correlation energy:                               -835.17361484846799
  Hartree-Fock Exchange energy:                              -228.08258883054845
  Dispersion energy:                                           -0.88227974450581

  Total energy:                                             -5175.44026026924803

  outer SCF iter =    2 RMS gradient =   0.24E-03 energy =      -5175.4402602692

  ----------------------------------- OT ---------------------------------------
  Minimizer      : DIIS                : direct inversion
                                         in the iterative subspace
                                         using   7 DIIS vectors
                                         safer DIIS on
  Preconditioner : FULL_SINGLE_INVERSE : inversion of 
                                         H + eS - 2*(Sc)(c^T*H*c+const)(Sc)^T
  Precond_solver : DEFAULT
  stepsize       :    0.08000000                  energy_gap     :    0.08000000
  eps_taylor     :   0.10000E-15                  max_taylor     :             4
  ----------------------------------- OT ---------------------------------------

  Step     Update method      Time    Convergence         Total energy    Change
  ------------------------------------------------------------------------------
     1 OT DIIS     0.80E-01   77.0     0.00020740     -5175.4864838214 -4.62E-02
     2 OT DIIS     0.80E-01   37.5     0.00015826     -5175.5206566216 -3.42E-02
     3 OT DIIS     0.80E-01   37.5     0.00014593     -5175.5402714253 -1.96E-02
     4 OT DIIS     0.80E-01   37.4     0.00003185     -5175.5542880913 -1.40E-02
     5 OT DIIS     0.80E-01   37.2     0.00001485     -5175.5547358864 -4.48E-04
     6 OT DIIS     0.80E-01   37.3     0.00000833     -5175.5548045230 -6.86E-05
     7 OT DIIS     0.80E-01   37.4     0.00000422     -5175.5548705516 -6.60E-05
     8 OT DIIS     0.80E-01   37.4     0.00000238     -5175.5548873197 -1.68E-05
     9 OT DIIS     0.80E-01   37.6     0.00000131     -5175.5548918906 -4.57E-06
    10 OT DIIS     0.80E-01   37.4     0.00000092     -5175.5548932263 -1.34E-06

  *** SCF run converged in    10 steps ***


  Electronic density on regular grids:      -2055.9999999835        0.0000000165
  Core density on regular grids:             2055.9999998392       -0.0000001608
  Total charge density on r-space grids:       -0.0000001442
  Total charge density g-space grids:          -0.0000001442

  Overlap energy of the core charge distribution:               0.00004743305796
  Self energy of the core charge distribution:              -9694.22645242353974
  Core Hamiltonian energy:                                   2871.87028131352963
  Hartree energy:                                            2710.98174841144009
  Exchange-correlation energy:                               -835.17465125545311
  Hartree-Fock Exchange energy:                              -228.12358696082651
  Dispersion energy:                                           -0.88227974450581

  Total energy:                                             -5175.55489322629819

  outer SCF iter =    3 RMS gradient =   0.92E-06 energy =      -5175.5548932263
  outer SCF loop converged in   3 iterations or   30 steps


 ENERGY| Total FORCE_EVAL ( QS ) energy [a.u.]:            -5175.554893226298191

 -------------------------------------------------------------------------------
 -                                                                             -
 -                                DBCSR STATISTICS                             -
 -                                                                             -
 -------------------------------------------------------------------------------
 COUNTER                                    TOTAL       BLAS       SMM       ACC
 flops    14 x     4 x     4               129024       0.0%    100.0%      0.0%     
 flops     4 x     4 x   976               187392       0.0%    100.0%      0.0%     
 flops    41 x     4 x     4               314880       0.0%    100.0%      0.0%     
 flops     4 x     4 x   974               374016       0.0%    100.0%      0.0%     
 flops     4 x     4 x   962               461760       0.0%    100.0%      0.0%     
 flops    29 x     4 x     4              1787328       0.0%    100.0%      0.0%     
 flops    14 x    32 x     4             16515072       0.0%    100.0%      0.0%     
 flops    14 x     4 x    32             16515072       0.0%    100.0%      0.0%     
 flops    32 x     4 x   976             23986176       0.0%    100.0%      0.0%     
 flops     4 x    32 x   976             23986176       0.0%    100.0%      0.0%     
 flops    41 x    32 x     4             40304640       0.0%    100.0%      0.0%     
 flops    41 x     4 x    32             40304640       0.0%    100.0%      0.0%     
 flops    32 x     4 x   974             47874048       0.0%    100.0%      0.0%     
 flops     4 x    32 x   974             47874048       0.0%    100.0%      0.0%     
 flops    32 x     4 x   962             59105280       0.0%    100.0%      0.0%     
 flops     4 x    32 x   962             59105280       0.0%    100.0%      0.0%     
 flops     6 x     6 x    68             67124160       0.0%    100.0%      0.0%     
 flops    31 x     6 x    68            109278720       0.0%    100.0%      0.0%     
 flops    14 x     4 x    14            111158656       0.0%    100.0%      0.0%     
 flops    68 x    68 x    68            156587136       0.0%    100.0%      0.0%     
 flops     6 x     6 x    64            189527040       0.0%    100.0%      0.0%     
 flops    29 x    32 x     4            228777984       0.0%    100.0%      0.0%     
 flops    29 x     4 x    32            228777984       0.0%    100.0%      0.0%     
 flops    31 x     6 x    64            308551680       0.0%    100.0%      0.0%     
 flops    41 x    14 x    68            393442560       0.0%    100.0%      0.0%     
 flops    64 x    68 x    68            442128384       0.0%    100.0%      0.0%     
 flops    68 x    64 x    68            442128384       0.0%    100.0%      0.0%     
 flops    68 x    68 x    64            442128384       0.0%    100.0%      0.0%     
 flops    14 x    14 x    68            509689376       0.0%    100.0%      0.0%     
 flops    41 x     4 x    14            521945088       0.0%    100.0%      0.0%     
 flops    14 x     4 x    41            521945088       0.0%    100.0%      0.0%     
 flops     6 x     6 x    96            758108160       0.0%    100.0%      0.0%     
 flops     6 x    31 x    68            764951040       0.0%    100.0%      0.0%     
 flops     6 x    17 x    68            943018560       0.0%    100.0%      0.0%     
 flops    41 x    14 x    64           1110896640       0.0%    100.0%      0.0%     
 flops    17 x     6 x    68           1126545120       0.0%    100.0%      0.0%     
 flops    31 x     6 x    96           1234206720       0.0%    100.0%      0.0%     
 flops    64 x    64 x    68           1248362496       0.0%    100.0%      0.0%     
 flops    64 x    68 x    64           1248362496       0.0%    100.0%      0.0%     
 flops    68 x    64 x    64           1248362496       0.0%    100.0%      0.0%     
 flops   963 x    68 x    68           1282438656       0.0%    100.0%      0.0%     
 flops    14 x    14 x    64           1439122944       0.0%    100.0%      0.0%     
 flops    41 x     4 x    41           1584281984       0.0%    100.0%      0.0%     
 flops    14 x     4 x    29           1733178272       0.0%    100.0%      0.0%     
 flops    29 x     4 x    14           1733178272       0.0%    100.0%      0.0%     
 flops    68 x    68 x    96           1768513536       0.0%    100.0%      0.0%     
 flops    68 x    96 x    68           1768513536       0.0%    100.0%      0.0%     
 flops    96 x    68 x    68           1768513536       0.0%    100.0%      0.0%     
 flops    68 x    68 x   976           2112095232       0.0%    100.0%      0.0%     
 flops     6 x    31 x    64           2159861760       0.0%    100.0%      0.0%     
 flops   976 x    68 x    68           2599501824       0.0%    100.0%      0.0%     
 flops    31 x    31 x    68           2650514880       0.0%    100.0%      0.0%     
 flops     6 x    17 x    64           2662640640       0.0%    100.0%      0.0%     
 flops    17 x     6 x    64           3180833280       0.0%    100.0%      0.0%     
 flops    64 x    64 x    64           3524788224       0.0%    100.0%      0.0%     
 flops   963 x    64 x    68           3621003264       0.0%    100.0%      0.0%     
 flops   963 x    68 x    64           3621003264       0.0%    100.0%      0.0%     
 flops    14 x    41 x    68           3773301504       0.0%    100.0%      0.0%     
 flops    68 x    68 x   974           4215534336       0.0%    100.0%      0.0%     
 flops    14 x    32 x    32           4359979008       0.0%    100.0%      0.0%     
 flops    41 x    14 x    96           4443586560       0.0%    100.0%      0.0%     
 flops    64 x    68 x    96           4993449984       0.0%    100.0%      0.0%     
 flops    64 x    96 x    68           4993449984       0.0%    100.0%      0.0%     
 flops    68 x    64 x    96           4993449984       0.0%    100.0%      0.0%     
 flops    68 x    96 x    64           4993449984       0.0%    100.0%      0.0%     
 flops    96 x    64 x    68           4993449984       0.0%    100.0%      0.0%     
 flops    96 x    68 x    64           4993449984       0.0%    100.0%      0.0%     
 flops   974 x    68 x    68           5188349952       0.0%    100.0%      0.0%     
 flops    68 x    68 x   962           5204496960       0.0%    100.0%      0.0%     
 flops    14 x    14 x    96           5756491776       0.0%    100.0%      0.0%     
 flops    64 x    68 x   976           5963563008       0.0%    100.0%      0.0%     
 flops    68 x    64 x   976           5963563008       0.0%    100.0%      0.0%     
 flops    32 x    32 x   976           6332350464       0.0%    100.0%      0.0%     
 flops    41 x    41 x    68           6345465696       0.0%    100.0%      0.0%     
 flops    14 x    29 x    68           6366183936       0.0%    100.0%      0.0%     
 flops   962 x    68 x    68           6405534720       0.0%    100.0%      0.0%     
 flops   976 x    64 x    68           7339769856       0.0%    100.0%      0.0%     
 flops   976 x    68 x    64           7339769856       0.0%    100.0%      0.0%     
 flops    17 x    31 x    68           7411601520       0.0%    100.0%      0.0%     
 flops    31 x    31 x    64           7483806720       0.0%    100.0%      0.0%     
 flops    41 x     4 x    29           8400199392       0.0%    100.0%      0.0%     
 flops    29 x     4 x    41           8400199392       0.0%    100.0%      0.0%     
 flops   963 x    68 x   976           8436434688       0.0%    100.0%      0.0%     
 flops    29 x    14 x    68           8529160304       0.0%    100.0%      0.0%     
 flops     6 x    31 x    96           8639447040       0.0%    100.0%      0.0%     
 flops    31 x    17 x    68           9821930880       0.0%    100.0%      0.0%     
 flops   963 x    64 x    64          10224009216       0.0%    100.0%      0.0%     
 flops    41 x    32 x    32          10640424960       0.0%    100.0%      0.0%     
 flops     6 x    17 x    96          10650562560       0.0%    100.0%      0.0%     
 flops    14 x    41 x    64          10654027776       0.0%    100.0%      0.0%     
 flops    64 x    68 x   974          11902685184       0.0%    100.0%      0.0%     
 flops    68 x    64 x   974          11902685184       0.0%    100.0%      0.0%     
 flops    32 x    32 x   974          12638748672       0.0%    100.0%      0.0%     
 flops    17 x     6 x    96          12723333120       0.0%    100.0%      0.0%     
 flops    64 x    64 x    96          14099152896       0.0%    100.0%      0.0%     
 flops    64 x    96 x    64          14099152896       0.0%    100.0%      0.0%     
 flops    96 x    64 x    64          14099152896       0.0%    100.0%      0.0%     
 flops   963 x    68 x    96          14484013056       0.0%    100.0%      0.0%     
 flops   963 x    96 x    68          14484013056       0.0%    100.0%      0.0%     
 flops   974 x    64 x    68          14649458688       0.0%    100.0%      0.0%     
 flops   974 x    68 x    64          14649458688       0.0%    100.0%      0.0%     
 flops    64 x    68 x   962          14695050240       0.0%    100.0%      0.0%     
 flops    68 x    64 x   962          14695050240       0.0%    100.0%      0.0%     
 flops    32 x    32 x   962          15603793920       0.0%    100.0%      0.0%     
 flops   963 x    68 x   974          16838293824       0.0%    100.0%      0.0%     
 flops    64 x    64 x   976          16838295552       0.0%    100.0%      0.0%     
 flops   976 x    68 x   976          17100644352       0.0%    100.0%      0.0%     
 flops    41 x    41 x    64          17916609024       0.0%    100.0%      0.0%     
 flops    14 x    29 x    64          17975107584       0.0%    100.0%      0.0%     
 flops    17 x    17 x    68          17993371200       0.0%    100.0%      0.0%     
 flops   962 x    64 x    68          18086215680       0.0%    100.0%      0.0%     
 flops   962 x    68 x    64          18086215680       0.0%    100.0%      0.0%     
 flops    96 x    96 x    68          19973799936       0.0%    100.0%      0.0%     
 flops    68 x    96 x    96          19973799936       0.0%    100.0%      0.0%     
 flops    96 x    68 x    96          19973799936       0.0%    100.0%      0.0%     
 flops   976 x    64 x    64          20724056064       0.0%    100.0%      0.0%     
 flops   963 x    68 x   962          20788550640       0.0%    100.0%      0.0%     
 flops    17 x    31 x    64          20926874880       0.0%    100.0%      0.0%     
 flops   963 x    64 x   976          23820521472       0.0%    100.0%      0.0%     
 flops    68 x    96 x   976          23854252032       0.0%    100.0%      0.0%     
 flops    96 x    68 x   976          23854252032       0.0%    100.0%      0.0%     
 flops    29 x    14 x    64          24082334976       0.0%    100.0%      0.0%     
 flops    31 x    17 x    64          27732510720       0.0%    100.0%      0.0%     
 flops    29 x    41 x    68          28156870704       0.0%    100.0%      0.0%     
 flops    14 x    32 x    14          28456615936       0.0%    100.0%      0.0%     
 flops   976 x    68 x    96          29359079424       0.0%    100.0%      0.0%     
 flops   976 x    96 x    68          29359079424       0.0%    100.0%      0.0%     
 flops    31 x    31 x    96          29935226880       0.0%    100.0%      0.0%     
 flops    29 x     4 x    29          30151626192       0.0%    100.0%      0.0%     
 flops    64 x    64 x   974          33607581696       0.0%    100.0%      0.0%     
 flops   976 x    68 x   974          34131204096       0.0%    100.0%      0.0%     
 flops   974 x    68 x   976          34131204096       0.0%    100.0%      0.0%     
 flops    41 x    29 x    68          37895008992       0.0%    100.0%      0.0%     
 flops   963 x    64 x    96          40896036864       0.0%    100.0%      0.0%     
 flops   963 x    96 x    64          40896036864       0.0%    100.0%      0.0%     
 flops   974 x    64 x    64          41363177472       0.0%    100.0%      0.0%     
 flops    64 x    64 x   962          41491906560       0.0%    100.0%      0.0%     
 flops   976 x    68 x   962          42138370560       0.0%    100.0%      0.0%     
 flops   962 x    68 x   976          42138370560       0.0%    100.0%      0.0%     
 flops    14 x    41 x    96          42616111104       0.0%    100.0%      0.0%     
 flops   963 x    64 x   974          47543417856       0.0%    100.0%      0.0%     
 flops    68 x    96 x   974          47610740736       0.0%    100.0%      0.0%     
 flops    96 x    68 x   974          47610740736       0.0%    100.0%      0.0%     
 flops   976 x    64 x   976          48284172288       0.0%    100.0%      0.0%     
 flops    17 x    17 x    64          50804812800       0.0%    100.0%      0.0%     
 flops   962 x    64 x    64          51066961920       0.0%    100.0%      0.0%     
 flops    96 x    96 x    64          56396611584       0.0%    100.0%      0.0%     
 flops    64 x    96 x    96          56396611584       0.0%    100.0%      0.0%     
 flops    96 x    64 x    96          56396611584       0.0%    100.0%      0.0%     
 flops   974 x    96 x    68          58597834752       0.0%    100.0%      0.0%     
 flops   974 x    68 x    96          58597834752       0.0%    100.0%      0.0%     
 flops   963 x    64 x   962          58697084160       0.0%    100.0%      0.0%     
 flops    68 x    96 x   962          58780200960       0.0%    100.0%      0.0%     
 flops    96 x    68 x   962          58780200960       0.0%    100.0%      0.0%     
 flops    29 x    32 x    32          60397387776       0.0%    100.0%      0.0%     
 flops    64 x    96 x   976          67353182208       0.0%    100.0%      0.0%     
 flops    96 x    64 x   976          67353182208       0.0%    100.0%      0.0%     
 flops   974 x    68 x   974          68122526208       0.0%    100.0%      0.0%     
 flops    41 x    41 x    96          71666436096       0.0%    100.0%      0.0%     
 flops    14 x    29 x    96          71900430336       0.0%    100.0%      0.0%     
 flops   962 x    68 x    96          72344862720       0.0%    100.0%      0.0%     
 flops   962 x    96 x    68          72344862720       0.0%    100.0%      0.0%     
 flops    29 x    41 x    64          79501752576       0.0%    100.0%      0.0%     
 flops   976 x    64 x    96          82896224256       0.0%    100.0%      0.0%     
 flops   976 x    96 x    64          82896224256       0.0%    100.0%      0.0%     
 flops    17 x    31 x    96          83707499520       0.0%    100.0%      0.0%     
 flops   962 x    68 x   974          84104042880       0.0%    100.0%      0.0%     
 flops   974 x    68 x   962          84104042880       0.0%    100.0%      0.0%     
 flops   963 x    96 x   976          95282085888       0.0%    100.0%      0.0%     
 flops    29 x    14 x    96          96329339904       0.0%    100.0%      0.0%     
 flops   976 x    64 x   974          96370458624       0.0%    100.0%      0.0%     
 flops   974 x    64 x   976          96370458624       0.0%    100.0%      0.0%     
 flops   962 x    68 x   962         103834816800       0.0%    100.0%      0.0%     
 flops    41 x    29 x    64         106997672448       0.0%    100.0%      0.0%     
 flops    31 x    17 x    96         110930042880       0.0%    100.0%      0.0%     
 flops   976 x    64 x   962         118978928640       0.0%    100.0%      0.0%     
 flops   962 x    64 x   976         118978928640       0.0%    100.0%      0.0%     
 flops    29 x    29 x    68         125666512464       0.0%    100.0%      0.0%     
 flops    41 x    32 x    14         133617942528       0.0%    100.0%      0.0%     
 flops    14 x    32 x    41         133617942528       0.0%    100.0%      0.0%     
 flops    64 x    96 x   974         134430326784       0.0%    100.0%      0.0%     
 flops    96 x    64 x   974         134430326784       0.0%    100.0%      0.0%     
 flops   963 x    96 x    96         163584147456       0.0%    100.0%      0.0%     
 flops   974 x    96 x    64         165452709888       0.0%    100.0%      0.0%     
 flops   974 x    64 x    96         165452709888       0.0%    100.0%      0.0%     
 flops    64 x    96 x   962         165967626240       0.0%    100.0%      0.0%     
 flops    96 x    64 x   962         165967626240       0.0%    100.0%      0.0%     
 flops   963 x    96 x   974         190173671424       0.0%    100.0%      0.0%     
 flops   974 x    64 x   974         192345956352       0.0%    100.0%      0.0%     
 flops   976 x    96 x   976         193136689152       0.0%    100.0%      0.0%     
 flops    17 x    17 x    96         203219251200       0.0%    100.0%      0.0%     
 flops   962 x    64 x    96         204267847680       0.0%    100.0%      0.0%     
 flops   962 x    96 x    64         204267847680       0.0%    100.0%      0.0%     
 flops    96 x    96 x    96         225586446336       0.0%    100.0%      0.0%     
 flops   963 x    96 x   962         234788336640       0.0%    100.0%      0.0%     
 flops   962 x    64 x   974         237470238720       0.0%    100.0%      0.0%     
 flops   974 x    64 x   962         237470238720       0.0%    100.0%      0.0%     
 flops    96 x    96 x   976         269412728832       0.0%    100.0%      0.0%     
 flops   962 x    64 x   962         293180659200       0.0%    100.0%      0.0%     
 flops    29 x    41 x    96         318007010304       0.0%    100.0%      0.0%     
 flops   976 x    96 x    96         331584897024       0.0%    100.0%      0.0%     
 flops    29 x    29 x    64         354823094016       0.0%    100.0%      0.0%     
 flops   974 x    96 x   976         385481834496       0.0%    100.0%      0.0%     
 flops   976 x    96 x   974         385481834496       0.0%    100.0%      0.0%     
 flops    41 x    32 x    41         405576187904       0.0%    100.0%      0.0%     
 flops    41 x    29 x    96         427990689792       0.0%    100.0%      0.0%     
 flops    14 x    32 x    29         443693637632       0.0%    100.0%      0.0%     
 flops    29 x    32 x    14         443693637632       0.0%    100.0%      0.0%     
 flops   976 x    96 x   962         475915714560       0.0%    100.0%      0.0%     
 flops   962 x    96 x   976         475915714560       0.0%    100.0%      0.0%     
 flops    96 x    96 x   974         537721307136       0.0%    100.0%      0.0%     
 flops   974 x    96 x    96         661810839552       0.0%    100.0%      0.0%     
 flops    96 x    96 x   962         663870504960       0.0%    100.0%      0.0%     
 flops   974 x    96 x   974         769383825408       0.0%    100.0%      0.0%     
 flops   962 x    96 x    96         817071390720       0.0%    100.0%      0.0%     
 flops   974 x    96 x   962         949880954880       0.0%    100.0%      0.0%     
 flops   962 x    96 x   974         949880954880       0.0%    100.0%      0.0%     
 flops   962 x    96 x   962        1172722636800       0.0%    100.0%      0.0%     
 flops    29 x    29 x    96        1419292376064       0.0%    100.0%      0.0%     
 flops    41 x    32 x    29        2150451044352       0.0%    100.0%      0.0%     
 flops    29 x    32 x    41        2150451044352       0.0%    100.0%      0.0%     
 flops    29 x    32 x    29        7718816305152       0.0%    100.0%      0.0%     
 flops inhomo. stacks               1014255147648     100.0%      0.0%      0.0%
 flops total                        33.811794E+12       3.0%     97.0%      0.0%
 flops max/rank                    270.893876E+09       3.0%     97.0%      0.0%
 matmuls inhomo. stacks                     23283     100.0%      0.0%      0.0%
 matmuls total                          290976612       0.0%    100.0%      0.0%
 number of processed stacks               3209877       0.7%     99.3%      0.0%
 average stack size                                     1.1      91.3       0.0
 marketing flops                    49.405403E+12
 -------------------------------------------------------------------------------
 # multiplications                            693
 max memory usage/rank               2.703925E+09
 # max total images/rank                        1
 # max 3D layers                                1
 # MPI messages exchanged                 2195424
 MPI messages size (bytes):
  total size                         1.668788E+12
  min size                           0.000000E+00
  max size                           7.620608E+06
  average size                     760.120938E+03
 MPI breakdown and total messages size (bytes):
             size <=      128               13860                        0
       128 < size <=     8192                   0                        0
      8192 < size <=    32768               64251               2101055616
     32768 < size <=   131072              957825              57890659200
    131072 < size <=  4194304              990000             631887873760
   4194304 < size <= 16777216              169488             976913185160
  16777216 < size                               0                        0
 -------------------------------------------------------------------------------
 -                                                                             -
 -                      DBCSR MESSAGE PASSING PERFORMANCE                      -
 -                                                                             -
 -------------------------------------------------------------------------------
 ROUTINE             CALLS      AVE VOLUME [Bytes]
 MP_Bcast              223                     12.
 MP_Allreduce         4138                     28.
 MP_Alltoall          4478                 305640.
 MP_ISend            33252                 359744.
 MP_IRecv            33252                 357259.
 -------------------------------------------------------------------------------

 -------------------------------------------------------------------------------
 -                                                                             -
 -                                DBM STATISTICS                               -
 -                                                                             -
 -------------------------------------------------------------------------------
    M  x    N  x    K                                          COUNT     PERCENT
 -------------------------------------------------------------------------------

 -------------------------------------------------------------------------------
 -                                                                             -
 -                                GRID STATISTICS                              -
 -                                                                             -
 -------------------------------------------------------------------------------
 LP    KERNEL             BACKEND                              COUNT     PERCENT
 6     collocate ortho    CPU                                8189482      16.18%
 6     integrate ortho    CPU                                7925460      15.66%
 1     collocate ortho    CPU                                5685300      11.23%
 1     integrate ortho    CPU                                5685300      11.23%
 2     collocate ortho    CPU                                4643700       9.17%
 2     integrate ortho    CPU                                4643700       9.17%
 0     collocate ortho    CPU                                2829600       5.59%
 0     integrate ortho    CPU                                2829600       5.59%
 3     collocate ortho    CPU                                1980540       3.91%
 3     integrate ortho    CPU                                1980540       3.91%
 5     collocate ortho    CPU                                1542943       3.05%
 5     integrate ortho    CPU                                1495500       2.95%
 4     collocate ortho    CPU                                 567367       1.12%
 4     integrate ortho    CPU                                 564300       1.11%
 0     collocate general  CPU                                  58896       0.12%
 -------------------------------------------------------------------------------

 MEMORY| Estimated peak process memory [MiB]                                2732

 -------------------------------------------------------------------------------
 -                                                                             -
 -                         MESSAGE PASSING PERFORMANCE                         -
 -                                                                             -
 -------------------------------------------------------------------------------

 ROUTINE             CALLS      AVE VOLUME [Bytes]
 MP_Group                4
 MP_Bcast             3734                4016410.
 MP_Allreduce         8397                   2554.
 MP_Sync               186
 MP_Alltoall          1389                7479215.
 MP_SendRecv         17446                  44208.
 MP_ISendRecv        26026                 265462.
 MP_Wait             37204
 MP_comm_split          29
 MP_ISend            10206                 272588.
 MP_IRecv            10206                 272547.
 -------------------------------------------------------------------------------


 -------------------------------------------------------------------------------
 -                                                                             -
 -                           R E F E R E N C E S                               -
 -                                                                             -
 -------------------------------------------------------------------------------
 
 CP2K version 2024.2 (Development Version), the CP2K developers group (2024).
 CP2K is freely available from https://www.cp2k.org/ .
 
 T. D. Kuehne, M. Iannuzzi, M. Del Ben, V. V. Rybkin, P. Seewald, F. Stein, T. 
 Laino, R. Z. Khaliullin, O. Schuett, F. Schiffmann, D. Golze, J. Wilhelm, S. 
 Chulkov, M. H. Bani-Hashemian, V. Weber, U. Borstnik, M. Taillefumier, A. S. 
 Jakobovits, A. Lazzaro, H. Pabst, T. Mueller, R. Schade, M. Guidon, S. 
 Andermatt, N. Holmberg, G. K. Schenter, A. Hehn, A. Bussy, F. Belleflamme, G. 
 Tabacchi, A. Gloess, M. Lass, I. Bethune, C. J. Mundy, C. Plessl, M. Watkins, 
 J. VandeVondele, M. Krack, J. Hutter.
 J. Chem. Phys. 152, 194103 (2020).
 CP2K: An electronic structure and molecular dynamics software package - 
 Quickstep: Efficient and accurate electronic structure calculations.
 https://doi.org/10.1063/5.0007045

 S. Lehtola, C. Steigemann, M. J. T. Oliveira, M. A. L. Marques.
 SoftwareX 7, 1-5 (2018).
 Recent developments in libxc - A comprehensive library of functionals for 
 density functional theory.
 https://doi.org/10.1016/j.softx.2017.11.002

 L. Goerigk, A. Hansen, C. Bauer, S. Ehrlich, A. Najibi, S. Grimme.
 Phys. Chem. Chem. Phys. 19, 32184-32215 (2017).
 A look at the density functional theory zoo with the advanced GMTKN55 database 
 for general main group thermochemistry, kinetics and noncovalent interactions.
 https://doi.org/10.1039/C7CP04913G

 O. Schuett, P. Messmer, J. Hutter, J. VandeVondele.
 Electronic Structure Calculations on Graphics Processing Units, 173-190 (2016).
 GPU-Accelerated Sparse Matrix-Matrix Multiplication for Linear Scaling Density 
 Functional Theory.
 https://doi.org/10.1002/9781118670712.ch8

 A. Heinecke, G. Henry, M. Hutchinson, H. Pabst.
 Proceedings of Intl. Supercomputing Conference, 981-991 (2016).
 LIBXSMM: Accelerating Small Matrix Multiplications by Runtime Code Generation.
 https://doi.org/10.1109/SC.2016.83

 J. Hutter, M. Iannuzzi, F. Schiffmann, J. VandeVondele.
 WIREs Comput Mol Sci. 4, 15-25 (2014).
 CP2K: atomistic simulations of condensed matter systems.
 https://doi.org/10.1002/wcms.1159

 U. Borstnik, J. VandeVondele, V. Weber, J. Hutter.
 Parallel Comput. 40, 47-58 (2014).
 Sparse matrix multiplication: The distributed block-compressed sparse row 
 library.
 https://doi.org/10.1016/j.parco.2014.03.012

 M. A. L. Marques, M. J. T. Oliveira, T. Burnus.
 Comput. Phys. Commun. 183, 2272-2281 (2012).
 LIBXC: A library of exchange and correlation functionals for density functional 
 theory.
 https://doi.org/10.1016/j.cpc.2012.05.007

 S. Grimme, S. Ehrlich, L. Goerigk.
 J. Comput. Chem. 32, 1456 (2011).
 Effect of the damping function in dispersion corrected density functional 
 theory.
 https://doi.org/10.1002/jcc.21759

 S. Grimme, J. Antony, S. Ehrlich, H. Krieg.
 J. Chem. Phys. 132, 154104 (2010).
 A consistent and accurate ab initio parametrization of density functional 
 dispersion correction (DFT-D) for the 94 elements H-Pu.
 https://doi.org/10.1063/1.3382344

 M. Guidon, J. Hutter, J. VandeVondele.
 J. Chem. Theory Comput. 6, 2348-2364 (2010).
 Auxiliary Density Matrix Methods for Hartree-Fock Exchange Calculations.
 https://doi.org/10.1021/ct1002225

 M. Guidon, J. Hutter, J. VandeVondele.
 J. Chem. Theory Comput. 5, 3010-3021 (2009).
 Robust Periodic Hartree-Fock Exchange for Large-Scale Simulations Using 
 Gaussian Basis Sets.
 https://doi.org/10.1021/ct900494g

 M. Guidon, F. Schiffmann, J. Hutter, J. VandeVondele.
 J. Chem. Phys. 128, 214104 (2008).
 Ab initio molecular dynamics using hybrid density functionals.
 https://doi.org/10.1063/1.2931945

 J. VandeVondele, J. Hutter.
 J. Chem. Phys. 127, 114105 (2007).
 Gaussian basis sets for accurate calculations on molecular systems in gas and 
 condensed phases.
 https://doi.org/10.1063/1.2770708

 J. VandeVondele, M. Krack, F. Mohamed, M. Parrinello, T. Chassaing, J. Hutter.
 Comput. Phys. Commun. 167, 103-128 (2005).
 QUICKSTEP: Fast and accurate density functional calculations using a mixed 
 Gaussian and plane waves approach.
 https://doi.org/10.1016/j.cpc.2004.12.014

 M. Krack.
 Theor. Chem. Acc. 114, 145-152 (2005).
 Pseudopotentials for H to Kr optimized for gradient-corrected 
 exchange-correlation functionals.
 https://doi.org/10.1007/s00214-005-0655-y

 M. Frigo, S. G. Johnson.
 Proc. IEEE 93, 216-231 (2005).
 The design and implementation of FFTW3.
 https://doi.org/10.1109/JPROC.2004.840301

 J. VandeVondele, J. Hutter.
 J. Chem. Phys. 118, 4365-4369 (2003).
 An efficient orbital transformation method for electronic structure 
 calculations.
 https://doi.org/10.1063/1.1543154

 C. Hartwigsen, S. Goedecker, J. Hutter.
 Phys. Rev. B 58, 3641-3662 (1998).
 Relativistic separable dual-space Gaussian pseudopotentials from H to Rn.
 https://doi.org/10.1103/PhysRevB.58.3641

 G. Lippert, J. Hutter, M. Parrinello.
 Mol. Phys. 92, 477-487 (1997).
 A hybrid Gaussian and plane wave density functional scheme.
 https://doi.org/10.1080/002689797170220

 S. Goedecker, M. Teter, J. Hutter.
 Phys. Rev. B 54, 1703-1710 (1996).
 Separable dual-space Gaussian pseudopotentials.
 https://doi.org/10.1103/PhysRevB.54.1703

 J. P. Perdew, K. Burke, M. Ernzerhof.
 Phys. Rev. Lett. 77, 3865-3868 (1996).
 Generalized gradient approximation made simple.
 https://doi.org/10.1103/PhysRevLett.77.3865


 -------------------------------------------------------------------------------
 -                                                                             -
 -                                T I M I N G                                  -
 -                                                                             -
 -------------------------------------------------------------------------------
 SUBROUTINE                       CALLS  ASD         SELF TIME        TOTAL TIME
                                MAXIMUM       AVERAGE  MAXIMUM  AVERAGE  MAXIMUM
 CP2K                                 1  1.0    0.074    0.094 1325.874 1325.878
 qs_energies                          1  2.0    0.006    0.008 1324.114 1324.119
 scf_env_do_scf                       1  3.0    0.000    0.000 1322.612 1322.617
 qs_ks_update_qs_env                 33  5.0    0.000    0.000 1282.482 1282.488
 rebuild_ks_matrix                   30  6.0    0.000    0.000 1282.402 1282.407
 qs_ks_build_kohn_sham_matrix        30  7.0    0.005    0.006 1282.402 1282.407
 hfx_ks_matrix                       30  8.0    0.002    0.003 1184.734 1184.748
 integrate_four_center               30  9.0    1.496    1.972 1184.641 1184.652
 integrate_four_center_main          30 10.0    0.034    0.038 1096.787 1143.267
 integrate_four_center_bin         1920 11.0 1096.753 1143.234 1096.753 1143.234
 scf_env_do_scf_inner_loop           30  4.0    0.001    0.009 1011.436 1011.694
 init_scf_loop                        3  4.0    0.000    0.000  311.043  311.055
 mp_sync                            186 11.1   53.748   93.604   53.748   93.604
 parallel_gemm_fm                   125 10.2    0.000    0.000   33.506   33.812
 parallel_gemm_fm_gemm              125 11.2    0.000    0.000   33.506   33.812
 cp_fm_gemm                         125 12.2   33.506   33.811   33.506   33.811
 admm_mo_merge_ks_matrix             30  8.0    0.000    0.000   31.840   31.862
 merge_ks_matrix_none                30  9.0    0.002    0.002   31.840   31.861
 qs_vxc_create                       60  8.0    0.001    0.001   30.164   30.165
 xc_vxc_pw_create                    60  9.0    0.151    0.187   30.164   30.164
 fft_wrap_pw1pw2                    996 10.8    0.021    0.033   26.112   27.520
 -------------------------------------------------------------------------------

 The number of warnings for this run is : 2
 
 -------------------------------------------------------------------------------
  **** **** ******  **  PROGRAM ENDED AT                 2024-09-13 01:13:27.693
 ***** ** ***  *** **   PROGRAM RAN ON                                  nid04440
 **    ****   ******    PROGRAM RAN BY                                  bsertcan
 ***** **    ** ** **   PROGRAM PROCESS ID                                 27309
  **** **  *******  **  PROGRAM STOPPED IN /scratch/snx3000/bsertcan/MFU_sp/br/x
                                           e/rep40
