 POWELL| Error in trust region
er                                           XSMM
 DBCSR| Multrec recursion limit                                              512
 DBCSR| Multiplication stack size                                          30000
 DBCSR| Maximum elements for images                                    UNLIMITED
 DBCSR| Multiplicative factor virtual images                                   1
 DBCSR| Use multiplication densification                                       F
 DBCSR| Multiplication size stacks                                             3
 DBCSR| Use memory pool for CPU allocation                                     F
 DBCSR| Number of 3D layers                                               SINGLE
 DBCSR| Use MPI memory allocation                                              F
 DBCSR| Use RMA algorithm                                                      F
 DBCSR| Use Communication thread                                               T
 DBCSR| Communication thread load                                             75
 DBCSR| MPI: My node id                                                        0
 DBCSR| MPI: Number of nodes                                                1536
 DBCSR| OMP: Current number of threads                                         4
 DBCSR| OMP: Max number of threads                                             4
 DBCSR| ACC: Number of devices/node                                            1
 DBCSR| ACC: Number of stack-buffers per thread                                8
 DBCSR| ACC: Avoid driver after busy                                           F
 DBCSR| ACC: Process inhomogeneous stacks                                      T
 DBCSR| ACC: Min. flop for processing                                          0
 DBCSR| ACC: Min. flop for sorting                                          4000
 DBCSR| ACC: Number of binning bins                                         4096
 DBCSR| ACC: Size of binning bins                                             16
 DBCSR| Split modifier for TAS multiplication algorithm                  1.0E+00


  **** **** ******  **  PROGRAM STARTED AT               2023-01-19 22:03:36.461
 ***** ** ***  *** **   PROGRAM STARTED ON                              nid01930
 **    ****   ******    PROGRAM STARTED BY                                 ahehn
 ***** **    ** ** **   PROGRAM PROCESS ID                                 20157
  **** **  *******  **  PROGRAM STARTED IN /scratch/snx3000/ahehn/OKTOBER_2022_M
                                           FU_MOFS/Br_Xe_MOF/RPA_34/DZbasis

 CP2K| version string:                 CP2K version 2022.1 (Development Version)
 CP2K| source code revision number:                                  git:a213519
 CP2K| cp2kflags: omp libint fftw3 libxc pexsi elpa elpa_nvidia_gpu parallel mpi
 CP2K|            3 scalapack cosma xsmm dbcsr_acc max_contr=4 plumed2 spglib si
 CP2K|            irius libvori libbqb offload_cuda no_offload_pw spla_gemm_offl
 CP2K|            loading libvdwxc
 CP2K| is freely available from                            https://www.cp2k.org/
 CP2K| Program compiled at                          Thu Dec  1 12:39:47 CET 2022
 CP2K| Program compiled on                                              daint103
 CP2K| Program compiled for                                        CRAY-XC50-gnu
 CP2K| Data directory path          /scratch/snx3000/ahehn/cp2k_master_9nov/data
 CP2K| Input file name                                     input_RPA_TZbasis.inp

 GLOBAL| Force Environment number                                              1
 GLOBAL| Basis set file name                                      BASIS_ADMM_UZH
 GLOBAL| Potential file name                                       POTENTIAL_UZH
 GLOBAL| MM Potential file name                                     MM_POTENTIAL
 GLOBAL| Coordinate file name                                   pbesol_rep34.xyz
 GLOBAL| Method name                                                        CP2K
 GLOBAL| Project name                                                  br_xe_RPA
 GLOBAL| Run type                                                         ENERGY
 GLOBAL| FFT library                                                       FFTW3
 GLOBAL| Diagonalization library                                       ScaLAPACK
 GLOBAL| DGEMM library                                                      SPLA
 GLOBAL| Orthonormality check for eigenvectors                          DISABLED
 GLOBAL| Matrix multiplication library                                     COSMA
 GLOBAL| All-to-all communication in single precision                          F
 GLOBAL| FFTs using library dependent lengths                                  F
 GLOBAL| Grid backend                                                       AUTO
 GLOBAL| Global print level                                               MEDIUM
 GLOBAL| MPI I/O enabled                                                       T
 GLOBAL| Total number of message passing processes                          1536
 GLOBAL| Number of threads for this process                                    4
 GLOBAL| This output is from process                                           0
 GLOBAL| Stack size for threads created by OpenMP (OMP_STACKSIZE)        default
 GLOBAL| CPU model name                Intel(R) Xeon(R) CPU E5-2690 v3 @ 2.60GHz
 GLOBAL| CPUID                                                              1002

 MEMORY| system memory details [Kb]
 MEMORY|                        rank 0           min           max       average
 MEMORY| MemTotal             65740148      65740148      65740148      65740148
 MEMORY| MemFree              60695348      60585516      60867684      60728986
 MEMORY| Buffers                  7584          6600          7584          6837
 MEMORY| Cached                2066768       1930320       2179084       2052189
 MEMORY| Slab                   255504        231720        264044        244797
 MEMORY| SReclaimable            51708         47304         51708         48182
 MEMORY| MemLikelyFree        62821408      62704764      62878916      62836195


 *** Fundamental physical constants (SI units) ***

 *** Literature: B. J. Mohr and B. N. Taylor,
 ***             CODATA recommended values of the fundamental physical
 ***             constants: 2006, Web Version 5.1
 ***             http://physics.nist.gov/constants

 Speed of light in vacuum [m/s]                             2.99792458000000E+08
 Magnetic constant or permeability of vacuum [N/A**2]       1.25663706143592E-06
 Electric constant or permittivity of vacuum [F/m]          8.85418781762039E-12
 Planck constant (h) [J*s]                                  6.62606896000000E-34
 Planck constant (h-bar) [J*s]                              1.05457162825177E-34
 Elementary charge [C]                                      1.60217648700000E-19
 Electron mass [kg]                                         9.10938215000000E-31
 Electron g factor [ ]                                     -2.00231930436220E+00
 Proton mass [kg]                                           1.67262163700000E-27
 Fine-structure constant                                    7.29735253760000E-03
 Rydberg constant [1/m]                                     1.09737315685270E+07
 Avogadro constant [1/mol]                                  6.02214179000000E+23
 Boltzmann constant [J/K]                                   1.38065040000000E-23
 Atomic mass unit [kg]                                      1.66053878200000E-27
 Bohr radius [m]                                            5.29177208590000E-11

 *** Conversion factors ***

 [u] -> [a.u.]                                              1.82288848426455E+03
 [Angstrom] -> [Bohr] = [a.u.]                              1.88972613288564E+00
 [a.u.] = [Bohr] -> [Angstrom]                              5.29177208590000E-01
 [a.u.] -> [s]                                              2.41888432650478E-17
 [a.u.] -> [fs]                                             2.41888432650478E-02
 [a.u.] -> [J]                                              4.35974393937059E-18
 [a.u.] -> [N]                                              8.23872205491840E-08
 [a.u.] -> [K]                                              3.15774647902944E+05
 [a.u.] -> [kJ/mol]                                         2.62549961709828E+03
 [a.u.] -> [kcal/mol]                                       6.27509468713739E+02
 [a.u.] -> [Pa]                                             2.94210107994716E+13
 [a.u.] -> [bar]                                            2.94210107994716E+08
 [a.u.] -> [atm]                                            2.90362800883016E+08
 [a.u.] -> [eV]                                             2.72113838565563E+01
 [a.u.] -> [Hz]                                             6.57968392072181E+15
 [a.u.] -> [1/cm] (wave numbers)                            2.19474631370540E+05
 [a.u./Bohr**2] -> [1/cm]                                   5.14048714338585E+03
 

 CELL_TOP| Volume [angstrom^3]:                                     10133.786944
 CELL_TOP| Vector a [angstrom    21.640     0.000     0.000   |a| =    21.640000
 CELL_TOP| Vector b [angstrom     0.000    21.640     0.000   |b| =    21.640000
 CELL_TOP| Vector c [angstrom     0.000     0.000    21.640   |c| =    21.640000
 CELL_TOP| Angle (b,c), alpha [degree]:                                90.000000
 CELL_TOP| Angle (a,c), beta  [degree]:                                90.000000
 CELL_TOP| Angle (a,b), gamma [degree]:                                90.000000
 CELL_TOP| Numerically orthorhombic:                                         YES
 CELL_TOP| Periodicity                                                       XYZ

 CELL| Volume [angstrom^3]:                                         10133.786944
 CELL| Vector a [angstrom]:      21.640     0.000     0.000   |a| =    21.640000
 CELL| Vector b [angstrom]:       0.000    21.640     0.000   |b| =    21.640000
 CELL| Vector c [angstrom]:       0.000     0.000    21.640   |c| =    21.640000
 CELL| Angle (b,c), alpha [degree]:                                    90.000000
 CELL| Angle (a,c), beta  [degree]:                                    90.000000
 CELL| Angle (a,b), gamma [degree]:                                    90.000000
 CELL| Numerically orthorhombic:                                             YES
 CELL| Periodicity                                                           XYZ

 CELL_REF| Volume [angstrom^3]:                                     10133.786944
 CELL_REF| Vector a [angstrom    21.640     0.000     0.000   |a| =    21.640000
 CELL_REF| Vector b [angstrom     0.000    21.640     0.000   |b| =    21.640000
 CELL_REF| Vector c [angstrom     0.000     0.000    21.640   |c| =    21.640000
 CELL_REF| Angle (b,c), alpha [degree]:                                90.000000
 CELL_REF| Angle (a,c), beta  [degree]:                                90.000000
 CELL_REF| Angle (a,b), gamma [degree]:                                90.000000
 CELL_REF| Numerically orthorhombic:                                         YES
 CELL_REF| Periodicity                                                       XYZ

 *******************************************************************************
 *******************************************************************************
 **                                                                           **
 **     #####                         ##              ##                      **
 **    ##   ##            ##          ##              ##                      **
 **   ##     ##                       ##            ######                    **
 **   ##     ##  ##   ##  ##   #####  ##  ##   ####   ##    #####    #####    **
 **   ##     ##  ##   ##  ##  ##      ## ##   ##      ##   ##   ##  ##   ##   **
 **   ##  ## ##  ##   ##  ##  ##      ####     ###    ##   ######   ######    **
 **    ##  ###   ##   ##  ##  ##      ## ##      ##   ##   ##       ##        **
 **     #######   #####   ##   #####  ##  ##  ####    ##    #####   ##        **
 **           ##                                                    ##        **
 **                                                                           **
 **                                                ... make the atoms dance   **
 **                                                                           **
 **            Copyright (C) by CP2K developers group (2000-2022)             **
 **                      J. Chem. Phys. 152, 194103 (2020)                    **
 **                                                                           **
 *******************************************************************************

 *** WARNING in qs_environment.F:892 :: Low-scaling RPA requires        ***
 *** SORT_BASIS EXP keyword (in DFT input section) for good performance ***


 *** WARNING in qs_environment.F:910 :: Automatic Generation of RI_AUX ***
 *** basis. This is experimental code.                                 ***


 *** WARNING in qs_environment.F:910 :: Automatic Generation of RI_AUX ***
 *** basis. This is experimental code.                                 ***


 *** WARNING in qs_environment.F:910 :: Automatic Generation of RI_AUX ***
 *** basis. This is experimental code.                                 ***


 *** WARNING in qs_environment.F:910 :: Automatic Generation of RI_AUX ***
 *** basis. This is experimental code.                                 ***


 *** WARNING in qs_environment.F:910 :: Automatic Generation of RI_AUX ***
 *** basis. This is experimental code.                                 ***


 *** WARNING in qs_environment.F:910 :: Automatic Generation of RI_AUX ***
 *** basis. This is experimental code.                                 ***


 DFT| Spin restricted Kohn-Sham (RKS) calculation                            RKS
 DFT| Multiplicity                                                             1
 DFT| Number of spin states                                                    1
 DFT| Charge                                                                   0
 DFT| Self-interaction correction (SIC)                                       NO
 DFT| Cutoffs: density                                              1.000000E-10
 DFT|          gradient                                             1.000000E-10
 DFT|          tau                                                  1.000000E-10
 DFT|          cutoff_smoothing_range                               0.000000E+00
 DFT| XC density smoothing                                                  NONE
 DFT| XC derivatives                                                          PW

 FUNCTIONAL| PBE:
 FUNCTIONAL| J.P.Perdew, K.Burke, M.Ernzerhof, Phys. Rev. Letter, vol. 77, n 18,
 FUNCTIONAL|  pp. 3865-3868, (1996)sx=0.750sc=1.000{spin unpolarized}           

 vdW POTENTIAL|                                                   Pair Potential
 vdW POTENTIAL|          DFT-D3 (Version 3.1)
 vdW POTENTIAL|          Potential Form: S. Grimme et al, JCP 132: 154104 (2010)
 vdW POTENTIAL|          Zero Damping
 vdW POTENTIAL|          Cutoff Radius [Bohr]:                             18.90
 vdW POTENTIAL|          s6 Scaling Factor:                               1.0000
 vdW POTENTIAL|          sr6 Scaling Factor:                              1.2870
 vdW POTENTIAL|          s8 Scaling Factor:                               0.9280
 vdW POTENTIAL|          Cutoff for CN calculation:                   0.1000E-05

 QS| Method:                                                                 GPW
 QS| Density plane wave grid type                        NON-SPHERICAL FULLSPACE
 QS| Number of grid levels:                                                    4
 QS| Density cutoff [a.u.]:                                                450.0
 QS| Multi grid cutoff [a.u.]: 1) grid level                               450.0
 QS|                           2) grid level                               150.0
 QS|                           3) grid level                                50.0
 QS|                           4) grid level                                16.7
 QS| Grid level progression factor:                                          3.0
 QS| Relative density cutoff [a.u.]:                                        40.0
 QS| Interaction thresholds: eps_pgf_orb:                                1.0E-30
 QS|                         eps_filter_matrix:                          0.0E+00
 QS|                         eps_core_charge:                            1.0E-17
 QS|                         eps_rho_gspace:                             1.0E-15
 QS|                         eps_rho_rspace:                             1.0E-15
 QS|                         eps_gvg_rspace:                             3.2E-08
 QS|                         eps_ppl:                                    1.0E-02
 QS|                         eps_ppnl:                                   3.2E-10


 ATOMIC KIND INFORMATION

  1. Atomic kind: N                                     Number of atoms:     144

     Orbital Basis Set                                                ccGRB-D-q5

       Number of orbital shell sets:                                           2
       Number of orbital shells:                                               5
       Number of primitive Cartesian functions:                                5
       Number of Cartesian basis functions:                                   14
       Number of spherical basis functions:                                   13
       Norm type:                                                              2

       Normalised Cartesian orbitals:

                        Set   Shell   Orbital            Exponent    Coefficient

                          1       1    1s                6.365672      -0.416803
                                                         1.911496       0.026568
                                                         0.573988       0.330632
                                                         0.172358       0.072689

                          1       2    2s                6.365672       0.337367
                                                         1.911496       0.042618
                                                         0.573988      -0.726424
                                                         0.172358       0.299878

                          1       3    2px               6.365672       1.220109
                                                         1.911496       0.893605
                                                         0.573988       0.340643
                                                         0.172358       0.063256
                          1       3    2py               6.365672       1.220109
                                                         1.911496       0.893605
                                                         0.573988       0.340643
                                                         0.172358       0.063256
                          1       3    2pz               6.365672       1.220109
                                                         1.911496       0.893605
                                                         0.573988       0.340643
                                                         0.172358       0.063256

                          1       4    3px               6.365672      -1.270703
                                                         1.911496      -0.796524
                                                         0.573988      -0.521295
                                                         0.172358       0.184054
                          1       4    3py               6.365672      -1.270703
                                                         1.911496      -0.796524
                                                         0.573988      -0.521295
                                                         0.172358       0.184054
                          1       4    3pz               6.365672      -1.270703
                                                         1.911496      -0.796524
                                                         0.573988      -0.521295
                                                         0.172358       0.184054

                          2       1    1dx2              0.817000       1.155575
                          2       1    1dxy              0.817000       2.001514
                          2       1    1dxz              0.817000       2.001514
                          2       1    1dy2              0.817000       1.155575
                          2       1    1dyz              0.817000       2.001514
                          2       1    1dz2              0.817000       1.155575

     Auxiliary Fit Basis Set                                         admm-tzp-q5

       Number of orbital shell sets:                                           7
       Number of orbital shells:                                               7
       Number of primitive Cartesian functions:                                9
       Number of Cartesian basis functions:                                   18
       Number of spherical basis functions:                                   17
       Norm type:                                                              2

       Normalised Cartesian orbitals:

                        Set   Shell   Orbital            Exponent    Coefficient

                          1       1    1s                6.213162      -0.926209
                                                         0.716616       0.618274

                          2       1    1s                0.318713       0.302315

                          3       1    1s                0.156356       0.177213

                          4       1    1px               6.434402      -5.795363
                                                         1.908664       3.868591
                          4       1    1py               6.434402      -5.795363
                                                         1.908664       3.868591
                          4       1    1pz               6.434402      -5.795363
                                                         1.908664       3.868591

                          5       1    1px               0.596798       0.747695
                          5       1    1py               0.596798       0.747695
                          5       1    1pz               0.596798       0.747695

                          6       1    1px               0.168824       0.154253
                          6       1    1py               0.168824       0.154253
                          6       1    1pz               0.168824       0.154253

                          7       1    1dx2              0.817000       1.155575
                          7       1    1dxy              0.817000       2.001514
                          7       1    1dxz              0.817000       2.001514
                          7       1    1dy2              0.817000       1.155575
                          7       1    1dyz              0.817000       2.001514
                          7       1    1dz2              0.817000       1.155575

     RI Auxiliary Basis Set                                  N-RI-AUX-ccGRB-D-q5

       Number of orbital shell sets:                                           2
       Number of orbital shells:                                              20
       Number of primitive Cartesian functions:                                8
       Number of Cartesian basis functions:                                   71
       Number of spherical basis functions:                                   62
       Norm type:                                                              2

       Normalised Cartesian orbitals:

                        Set   Shell   Orbital            Exponent    Coefficient

                          1       1    1s               11.724571       4.515781
                                                         6.513651       0.000000
                                                         3.618695       0.000000
                                                         2.010386       0.000000
                                                         1.116881       0.000000
                                                         0.620490       0.000000
                                                         0.344716       0.000000

                          1       2    2s               11.724571     -12.233719
                                                         6.513651       8.391543
                                                         3.618695       0.000000
                                                         2.010386       0.000000
                                                         1.116881       0.000000
                                                         0.620490       0.000000
                                                         0.344716       0.000000

                          1       3    3s               11.724571      18.339827
                                                         6.513651     -24.656338
                                                         3.618695       9.318380
                                                         2.010386       0.000000
                                                         1.116881       0.000000
                                                         0.620490       0.000000
                                                         0.344716       0.000000

                          1       4    4s               11.724571     -20.145370
                                                         6.513651      37.912344
                                                         3.618695     -28.093602
                                                         2.010386       8.048070
                                                         1.116881       0.000000
                                                         0.620490       0.000000
                                                         0.344716       0.000000

                          1       5    5s               11.724571      18.578580
                                                         6.513651     -42.074258
                                                         3.618695      43.649026
                                                         2.010386     -24.526361
                                                         1.116881       6.080231
                                                         0.620490       0.000000
                                                         0.344716       0.000000

                          1       6    6s               11.724571     -15.523909
                                                         6.513651      38.980875
                                                         3.618695     -48.664478
                                                         2.010386      38.288991
                                                         1.116881     -18.623409
                                                         0.620490       4.271117
                                                         0.344716       0.000000

                          1       7    7s               11.724571      12.274855
                                                         6.513651     -32.642627
                                                         3.618695      45.183223
                                                         2.010386     -42.782401
                                                         1.116881      29.141671
                                                         0.620490     -13.115351
                                                         0.344716       2.883322

                          1       8    2px              11.724571      30.925114
                                                         6.513651       0.000000
                                                         3.618695       0.000000
                                                         2.010386       0.000000
                                                         1.116881       0.000000
                                                         0.620490       0.000000
                                                         0.344716       0.000000
                          1       8    2py              11.724571      30.925114
                                                         6.513651       0.000000
                                                         3.618695       0.000000
                                                         2.010386       0.000000
                                                         1.116881       0.000000
                                                         0.620490       0.000000
                                                         0.344716       0.000000
                          1       8    2pz              11.724571      30.925114
                                                         6.513651       0.000000
                                                         3.618695       0.000000
                                                         2.010386       0.000000
                                                         1.116881       0.000000
                                                         0.620490       0.000000
                                                         0.344716       0.000000

                          1       9    3px              11.724571     -63.489866
                                                         6.513651      33.872187
                                                         3.618695       0.000000
                                                         2.010386       0.000000
                                                         1.116881       0.000000
                                                         0.620490       0.000000
                                                         0.344716       0.000000
                          1       9    3py              11.724571     -63.489866
                                                         6.513651      33.872187
                                                         3.618695       0.000000
                                                         2.010386       0.000000
                                                         1.116881       0.000000
                                                         0.620490       0.000000
                                                         0.344716       0.000000
                          1       9    3pz              11.724571     -63.489866
                                                         6.513651      33.872187
                                                         3.618695       0.000000
                                                         2.010386       0.000000
                                                         1.116881       0.000000
                                                         0.620490       0.000000
                                                         0.344716       0.000000

                          1      10    4px              11.724571      80.276990
                                                         6.513651     -80.719224
                                                         3.618695      24.596570
                                                         2.010386       0.000000
                                                         1.116881       0.000000
                                                         0.620490       0.000000
                                                         0.344716       0.000000
                          1      10    4py              11.724571      80.276990
                                                         6.513651     -80.719224
                                                         3.618695      24.596570
                                                         2.010386       0.000000
                                                         1.116881       0.000000
                                                         0.620490       0.000000
                                                         0.344716       0.000000
                          1      10    4pz              11.724571      80.276990
                                                         6.513651     -80.719224
                                                         3.618695      24.596570
                                                         2.010386       0.000000
                                                         1.116881       0.000000
                                                         0.620490       0.000000
                                                         0.344716       0.000000

                          1      11    5px              11.724571     -78.848048
                                                         6.513651     107.367873
                                                         3.618695     -61.723672
                                                         2.010386      14.658344
                                                         1.116881       0.000000
                                                         0.620490       0.000000
                                                         0.344716       0.000000
                          1      11    5py              11.724571     -78.848048
                                                         6.513651     107.367873
                                                         3.618695     -61.723672
                                                         2.010386      14.658344
                                                         1.116881       0.000000
                                                         0.620490       0.000000
                                                         0.344716       0.000000
                          1      11    5pz              11.724571     -78.848048
                                                         6.513651     107.367873
                                                         3.618695     -61.723672
                                                         2.010386      14.658344
                                                         1.116881       0.000000
                                                         0.620490       0.000000
                                                         0.344716       0.000000

                          1      12    6px              11.724571      67.388716
                                                         6.513651    -107.684365
                                                         3.618695      83.866257
                                                         2.010386     -37.608926
                                                         1.116881       7.883442
                                                         0.620490       0.000000
                                                         0.344716       0.000000
                          1      12    6py              11.724571      67.388716
                                                         6.513651    -107.684365
                                                         3.618695      83.866257
                                                         2.010386     -37.608926
                                                         1.116881       7.883442
                                                         0.620490       0.000000
                                                         0.344716       0.000000
                          1      12    6pz              11.724571      67.388716
                                                         6.513651    -107.684365
                                                         3.618695      83.866257
                                                         2.010386     -37.608926
                                                         1.116881       7.883442
                                                         0.620490       0.000000
                                                         0.344716       0.000000

                          1      13    7px              11.724571     -30.875753
                                                         6.513651      53.751399
                                                         3.618695     -49.128265
                                                         2.010386      29.858300
                                                         1.116881     -11.826261
                                                         0.620490       2.324027
                                                         0.344716       0.217855
                          1      13    7py              11.724571     -30.875753
                                                         6.513651      53.751399
                                                         3.618695     -49.128265
                                                         2.010386      29.858300
                                                         1.116881     -11.826261
                                                         0.620490       2.324027
                                                         0.344716       0.217855
                          1      13    7pz              11.724571     -30.875753
                                                         6.513651      53.751399
                                                         3.618695     -49.128265
                                                         2.010386      29.858300
                                                         1.116881     -11.826261
                                                         0.620490       2.324027
                                                         0.344716       0.217855

                          1      14    3dx2             11.724571     122.272606
                                                         6.513651       0.000000
                                                         3.618695       0.000000
                                                         2.010386       0.000000
                                                         1.116881       0.000000
                                                         0.620490       0.000000
                                                         0.344716       0.000000
                          1      14    3dxy             11.724571     211.782365
                                                         6.513651       0.000000
                                                         3.618695       0.000000
                                                         2.010386       0.000000
                                                         1.116881       0.000000
                                                         0.620490       0.000000
                                                         0.344716       0.000000
                          1      14    3dxz             11.724571     211.782365
                                                         6.513651       0.000000
                                                         3.618695       0.000000
                                                         2.010386       0.000000
                                                         1.116881       0.000000
                                                         0.620490       0.000000
                                                         0.344716       0.000000
                          1      14    3dy2             11.724571     122.272606
                                                         6.513651       0.000000
                                                         3.618695       0.000000
                                                         2.010386       0.000000
                                                         1.116881       0.000000
                                                         0.620490       0.000000
                                                         0.344716       0.000000
                          1      14    3dyz             11.724571     211.782365
                                                         6.513651       0.000000
                                                         3.618695       0.000000
                                                         2.010386       0.000000
                                                         1.116881       0.000000
                                                         0.620490       0.000000
                                                         0.344716       0.000000
                          1      14    3dz2             11.724571     122.272606
                                                         6.513651       0.000000
                                                         3.618695       0.000000
                                                         2.010386       0.000000
                                                         1.116881       0.000000
                                                         0.620490       0.000000
                                                         0.344716       0.000000

                          1      15    4dx2             11.724571    -207.500486
                                                         6.513651      86.102047
                                                         3.618695       0.000000
                                                         2.010386       0.000000
                                                         1.116881       0.000000
                                                         0.620490       0.000000
                                                         0.344716       0.000000
                          1      15    4dxy             11.724571    -359.401384
                                                         6.513651     149.133119
                                                         3.618695       0.000000
                                                         2.010386       0.000000
                                                         1.116881       0.000000
                                                         0.620490       0.000000
                                                         0.344716       0.000000
                          1      15    4dxz             11.724571    -359.401384
                                                         6.513651     149.133119
                                                         3.618695       0.000000
                                                         2.010386       0.000000
                                                         1.116881       0.000000
                                                         0.620490       0.000000
                                                         0.344716       0.000000
                          1      15    4dy2             11.724571    -207.500486
                                                         6.513651      86.102047
                                                         3.618695       0.000000
                                                         2.010386       0.000000
                                                         1.116881       0.000000
                                                         0.620490       0.000000
                                                         0.344716       0.000000
                          1      15    4dyz             11.724571    -359.401384
                                                         6.513651     149.133119
                                                         3.618695       0.000000
                                                         2.010386       0.000000
                                                         1.116881       0.000000
                                                         0.620490       0.000000
                                                         0.344716       0.000000
                          1      15    4dz2             11.724571    -207.500486
                                                         6.513651      86.102047
                                                         3.618695       0.000000
                                                         2.010386       0.000000
                                                         1.116881       0.000000
                                                         0.620490       0.000000
                                                         0.344716       0.000000

                          1      16    5dx2             11.724571     230.646551
                                                         6.513651    -173.749577
                                                         3.618695      42.619479
                                                         2.010386       0.000000
                                                         1.116881       0.000000
                                                         0.620490       0.000000
                                                         0.344716       0.000000
                          1      16    5dxy             11.724571     399.491545
                                                         6.513651    -300.943095
                                                         3.618695      73.819104
                                                         2.010386       0.000000
                                                         1.116881       0.000000
                                                         0.620490       0.000000
                                                         0.344716       0.000000
                          1      16    5dxz             11.724571     399.491545
                                                         6.513651    -300.943095
                                                         3.618695      73.819104
                                                         2.010386       0.000000
                                                         1.116881       0.000000
                                                         0.620490       0.000000
                                                         0.344716       0.000000
                          1      16    5dy2             11.724571     230.646551
                                                         6.513651    -173.749577
                                                         3.618695      42.619479
                                                         2.010386       0.000000
                                                         1.116881       0.000000
                                                         0.620490       0.000000
                                                         0.344716       0.000000
                          1      16    5dyz             11.724571     399.491545
                                                         6.513651    -300.943095
                                                         3.618695      73.819104
                                                         2.010386       0.000000
                                                         1.116881       0.000000
                                                         0.620490       0.000000
                                                         0.344716       0.000000
                          1      16    5dz2             11.724571     230.646551
                                                         6.513651    -173.749577
                                                         3.618695      42.619479
                                                         2.010386       0.000000
                                                         1.116881       0.000000
                                                         0.620490       0.000000
                                                         0.344716       0.000000

                          1      17    6dx2             11.724571    -207.278245
                                                         6.513651     205.084030
                                                         3.618695     -91.458931
                                                         2.010386      17.939820
                                                         1.116881       0.000000
                                                         0.620490       0.000000
                                                         0.344716       0.000000
                          1      17    6dxy             11.724571    -359.016452
                                                         6.513651     355.215959
                                                         3.618695    -158.411515
                                                         2.010386      31.072680
                                                         1.116881       0.000000
                                                         0.620490       0.000000
                                                         0.344716       0.000000
                          1      17    6dxz             11.724571    -359.016452
                                                         6.513651     355.215959
                                                         3.618695    -158.411515
                                                         2.010386      31.072680
                                                         1.116881       0.000000
                                                         0.620490       0.000000
                                                         0.344716       0.000000
                          1      17    6dy2             11.724571    -207.278245
                                                         6.513651     205.084030
                                                         3.618695     -91.458931
                                                         2.010386      17.939820
                                                         1.116881       0.000000
                                                         0.620490       0.000000
                                                         0.344716       0.000000
                          1      17    6dyz             11.724571    -359.016452
                                                         6.513651     355.215959
                                                         3.618695    -158.411515
                                                         2.010386      31.072680
                                                         1.116881       0.000000
                                                         0.620490       0.000000
                                                         0.344716       0.000000
                          1      17    6dz2             11.724571    -207.278245
                                                         6.513651     205.084030
                                                         3.618695     -91.458931
                                                         2.010386      17.939820
                                                         1.116881       0.000000
                                                         0.620490       0.000000
                                                         0.344716       0.000000

                          1      18    7dx2             11.724571     166.377455
                                                         6.513651    -188.884398
                                                         3.618695     110.694694
                                                         2.010386     -39.523586
                                                         1.116881       6.965461
                                                         0.620490       0.000000
                                                         0.344716       0.000000
                          1      18    7dxy             11.724571     288.174205
                                                         6.513651    -327.157374
                                                         3.618695     191.728834
                                                         2.010386     -68.456859
                                                         1.116881      12.064532
                                                         0.620490       0.000000
                                                         0.344716       0.000000
                          1      18    7dxz             11.724571     288.174205
                                                         6.513651    -327.157374
                                                         3.618695     191.728834
                                                         2.010386     -68.456859
                                                         1.116881      12.064532
                                                         0.620490       0.000000
                                                         0.344716       0.000000
                          1      18    7dy2             11.724571     166.377455
                                                         6.513651    -188.884398
                                                         3.618695     110.694694
                                                         2.010386     -39.523586
                                                         1.116881       6.965461
                                                         0.620490       0.000000
                                                         0.344716       0.000000
                          1      18    7dyz             11.724571     288.174205
                                                         6.513651    -327.157374
                                                         3.618695     191.728834
                                                         2.010386     -68.456859
                                                         1.116881      12.064532
                                                         0.620490       0.000000
                                                         0.344716       0.000000
                          1      18    7dz2             11.724571     166.377455
                                                         6.513651    -188.884398
                                                         3.618695     110.694694
                                                         2.010386     -39.523586
                                                         1.116881       6.965461
                                                         0.620490       0.000000
                                                         0.344716       0.000000

                          1      19    8dx2             11.724571     -70.232219
                                                         6.513651      85.554840
                                                         3.618695     -57.537510
                                                         2.010386      27.011256
                                                         1.116881      -8.672405
                                                         0.620490       1.449507
                                                         0.344716       0.142511
                          1      19    8dxy             11.724571    -121.645772
                                                         6.513651     148.185329
                                                         3.618695     -99.657891
                                                         2.010386      46.784868
                                                         1.116881     -15.021046
                                                         0.620490       2.510620
                                                         0.344716       0.246836
                          1      19    8dxz             11.724571    -121.645772
                                                         6.513651     148.185329
                                                         3.618695     -99.657891
                                                         2.010386      46.784868
                                                         1.116881     -15.021046
                                                         0.620490       2.510620
                                                         0.344716       0.246836
                          1      19    8dy2             11.724571     -70.232219
                                                         6.513651      85.554840
                                                         3.618695     -57.537510
                                                         2.010386      27.011256
                                                         1.116881      -8.672405
                                                         0.620490       1.449507
                                                         0.344716       0.142511
                          1      19    8dyz             11.724571    -121.645772
                                                         6.513651     148.185329
                                                         3.618695     -99.657891
                                                         2.010386      46.784868
                                                         1.116881     -15.021046
                                                         0.620490       2.510620
                                                         0.344716       0.246836
                          1      19    8dz2             11.724571     -70.232219
                                                         6.513651      85.554840
                                                         3.618695     -57.537510
                                                         2.010386      27.011256
                                                         1.116881      -8.672405
                                                         0.620490       1.449507
                                                         0.344716       0.142511

                          2       1    4fx3              0.989358       1.437143
                          2       1    4fx2y             0.989358       3.213549
                          2       1    4fx2z             0.989358       3.213549
                          2       1    4fxy2             0.989358       3.213549
                          2       1    4fxyz             0.989358       5.566031
                          2       1    4fxz2             0.989358       3.213549
                          2       1    4fy3              0.989358       1.437143
                          2       1    4fy2z             0.989358       3.213549
                          2       1    4fyz2             0.989358       3.213549
                          2       1    4fz3              0.989358       1.437143

       Atomic covalent radius [Angstrom]:                                  0.750

       Atomic van der Waals radius [Angstrom]:                             1.550

     GTH Potential information for                                   GTH-PBE0-q5

       Description:                       Goedecker-Teter-Hutter pseudopotential
                                           Goedecker et al., PRB 54, 1703 (1996)
                                          Hartwigsen et al., PRB 58, 3641 (1998)
                                                      Krack, TCA 114, 145 (2005)

       Gaussian exponent of the core charge distribution:               6.196924
       Electronic configuration (s p d ...):                       2   3   0   0

       Parameters of the local part of the GTH pseudopotential:

                          rloc        C1          C2          C3          C4
                        0.284051  -12.396524    1.863724

       Parameters of the non-local part of the GTH pseudopotential:

                   l      r(l)      h(i,j,l)

                   0    0.255381   13.630734

  2. Atomic kind: C                                     Number of atoms:     144

     Orbital Basis Set                                                ccGRB-D-q4

       Number of orbital shell sets:                                           2
       Number of orbital shells:                                               5
       Number of primitive Cartesian functions:                                5
       Number of Cartesian basis functions:                                   14
       Number of spherical basis functions:                                   13
       Norm type:                                                              2

       Normalised Cartesian orbitals:

                        Set   Shell   Orbital            Exponent    Coefficient

                          1       1    1s                4.560587      -0.310227
                                                         1.386858       0.001490
                                                         0.421738       0.257664
                                                         0.128249       0.062129

                          1       2    2s                4.560587       0.255809
                                                         1.386858       0.066528
                                                         0.421738      -0.601138
                                                         0.128249       0.243111

                          1       3    2px               4.560587       0.713883
                                                         1.386858       0.542334
                                                         0.421738       0.226199
                                                         0.128249       0.047904
                          1       3    2py               4.560587       0.713883
                                                         1.386858       0.542334
                                                         0.421738       0.226199
                                                         0.128249       0.047904
                          1       3    2pz               4.560587       0.713883
                                                         1.386858       0.542334
                                                         0.421738       0.226199
                                                         0.128249       0.047904

                          1       4    3px               4.560587      -0.795852
                                                         1.386858      -0.502480
                                                         0.421738      -0.385060
                                                         0.128249       0.127805
                          1       4    3py               4.560587      -0.795852
                                                         1.386858      -0.502480
                                                         0.421738      -0.385060
                                                         0.128249       0.127805
                          1       4    3pz               4.560587      -0.795852
                                                         1.386858      -0.502480
                                                         0.421738      -0.385060
                                                         0.128249       0.127805

                          2       1    1dx2              0.550000       0.578155
                          2       1    1dxy              0.550000       1.001394
                          2       1    1dxz              0.550000       1.001394
                          2       1    1dy2              0.550000       0.578155
                          2       1    1dyz              0.550000       1.001394
                          2       1    1dz2              0.550000       0.578155

     Auxiliary Fit Basis Set                                         admm-tzp-q4

       Number of orbital shell sets:                                           7
       Number of orbital shells:                                               7
       Number of primitive Cartesian functions:                                9
       Number of Cartesian basis functions:                                   18
       Number of spherical basis functions:                                   17
       Norm type:                                                              2

       Normalised Cartesian orbitals:

                        Set   Shell   Orbital            Exponent    Coefficient

                          1       1    1s                8.477503       0.595236
                                                         3.577003       1.575378

                          2       1    1s                0.495726       0.421057

                          3       1    1s                0.159172       0.179601

                          4       1    1px               4.986355       0.952283
                                                         1.664384       2.520356
                          4       1    1py               4.986355       0.952283
                                                         1.664384       2.520356
                          4       1    1pz               4.986355       0.952283
                                                         1.664384       2.520356

                          5       1    1px               0.555716       0.683921
                          5       1    1py               0.555716       0.683921
                          5       1    1pz               0.555716       0.683921

                          6       1    1px               0.158157       0.142168
                          6       1    1py               0.158157       0.142168
                          6       1    1pz               0.158157       0.142168

                          7       1    1dx2              0.550000       0.578155
                          7       1    1dxy              0.550000       1.001394
                          7       1    1dxz              0.550000       1.001394
                          7       1    1dy2              0.550000       0.578155
                          7       1    1dyz              0.550000       1.001394
                          7       1    1dz2              0.550000       0.578155

     RI Auxiliary Basis Set                                  C-RI-AUX-ccGRB-D-q4

       Number of orbital shell sets:                                           2
       Number of orbital shells:                                              18
       Number of primitive Cartesian functions:                                8
       Number of Cartesian basis functions:                                   62
       Number of spherical basis functions:                                   54
       Norm type:                                                              2

       Normalised Cartesian orbitals:

                        Set   Shell   Orbital            Exponent    Coefficient

                          1       1    1s                8.724077       3.617843
                                                         4.846709       0.000000
                                                         2.692616       0.000000
                                                         1.495898       0.000000
                                                         0.831054       0.000000
                                                         0.461697       0.000000
                                                         0.256498       0.000000

                          1       2    2s                8.724077      -9.801113
                                                         4.846709       6.722931
                                                         2.692616       0.000000
                                                         1.495898       0.000000
                                                         0.831054       0.000000
                                                         0.461697       0.000000
                                                         0.256498       0.000000

                          1       3    3s                8.724077      14.693056
                                                         4.846709     -19.753563
                                                         2.692616       7.465472
                                                         1.495898       0.000000
                                                         0.831054       0.000000
                                                         0.461697       0.000000
                                                         0.256498       0.000000

                          1       4    4s                8.724077     -16.139576
                                                         4.846709      30.373687
                                                         2.692616     -22.507347
                                                         1.495898       6.447756
                                                         0.831054       0.000000
                                                         0.461697       0.000000
                                                         0.256498       0.000000

                          1       5    5s                8.724077      14.884334
                                                         4.846709     -33.708028
                                                         2.692616      34.969662
                                                         1.495898     -19.649431
                                                         0.831054       4.871211
                                                         0.461697       0.000000
                                                         0.256498       0.000000

                          1       6    6s                8.724077     -12.437067
                                                         4.846709      31.229747
                                                         2.692616     -38.987819
                                                         1.495898      30.675440
                                                         0.831054     -14.920249
                                                         0.461697       3.421830
                                                         0.256498       0.000000

                          1       7    7s                8.724077       9.834069
                                                         4.846709     -26.151823
                                                         2.692616      36.198792
                                                         1.495898     -34.275360
                                                         0.831054      23.347013
                                                         0.461697     -10.507437
                                                         0.256498       2.309989

                          1       8    2px               8.724077      21.371718
                                                         4.846709       0.000000
                                                         2.692616       0.000000
                                                         1.495898       0.000000
                                                         0.831054       0.000000
                                                         0.461697       0.000000
                                                         0.256498       0.000000
                          1       8    2py               8.724077      21.371718
                                                         4.846709       0.000000
                                                         2.692616       0.000000
                                                         1.495898       0.000000
                                                         0.831054       0.000000
                                                         0.461697       0.000000
                                                         0.256498       0.000000
                          1       8    2pz               8.724077      21.371718
                                                         4.846709       0.000000
                                                         2.692616       0.000000
                                                         1.495898       0.000000
                                                         0.831054       0.000000
                                                         0.461697       0.000000
                                                         0.256498       0.000000

                          1       9    3px               8.724077     -43.876557
                                                         4.846709      23.408380
                                                         2.692616       0.000000
                                                         1.495898       0.000000
                                                         0.831054       0.000000
                                                         0.461697       0.000000
                                                         0.256498       0.000000
                          1       9    3py               8.724077     -43.876557
                                                         4.846709      23.408380
                                                         2.692616       0.000000
                                                         1.495898       0.000000
                                                         0.831054       0.000000
                                                         0.461697       0.000000
                                                         0.256498       0.000000
                          1       9    3pz               8.724077     -43.876557
                                                         4.846709      23.408380
                                                         2.692616       0.000000
                                                         1.495898       0.000000
                                                         0.831054       0.000000
                                                         0.461697       0.000000
                                                         0.256498       0.000000

                          1      10    4px               8.724077      55.477797
                                                         4.846709     -55.783416
                                                         2.692616      16.998190
                                                         1.495898       0.000000
                                                         0.831054       0.000000
                                                         0.461697       0.000000
                                                         0.256498       0.000000
                          1      10    4py               8.724077      55.477797
                                                         4.846709     -55.783416
                                                         2.692616      16.998190
                                                         1.495898       0.000000
                                                         0.831054       0.000000
                                                         0.461697       0.000000
                                                         0.256498       0.000000
                          1      10    4pz               8.724077      55.477797
                                                         4.846709     -55.783416
                                                         2.692616      16.998190
                                                         1.495898       0.000000
                                                         0.831054       0.000000
                                                         0.461697       0.000000
                                                         0.256498       0.000000

                          1      11    5px               8.724077     -54.490284
                                                         4.846709      74.199756
                                                         2.692616     -42.655976
                                                         1.495898      10.130084
                                                         0.831054       0.000000
                                                         0.461697       0.000000
                                                         0.256498       0.000000
                          1      11    5py               8.724077     -54.490284
                                                         4.846709      74.199756
                                                         2.692616     -42.655976
                                                         1.495898      10.130084
                                                         0.831054       0.000000
                                                         0.461697       0.000000
                                                         0.256498       0.000000
                          1      11    5pz               8.724077     -54.490284
                                                         4.846709      74.199756
                                                         2.692616     -42.655976
                                                         1.495898      10.130084
                                                         0.831054       0.000000
                                                         0.461697       0.000000
                                                         0.256498       0.000000

                          1      12    6px               8.724077      17.581649
                                                         4.846709     -28.094744
                                                         2.692616      21.880623
                                                         1.495898      -9.812132
                                                         0.831054       2.056782
                                                         0.461697       0.204800
                                                         0.256498       0.098229
                          1      12    6py               8.724077      17.581649
                                                         4.846709     -28.094744
                                                         2.692616      21.880623
                                                         1.495898      -9.812132
                                                         0.831054       2.056782
                                                         0.461697       0.204800
                                                         0.256498       0.098229
                          1      12    6pz               8.724077      17.581649
                                                         4.846709     -28.094744
                                                         2.692616      21.880623
                                                         1.495898      -9.812132
                                                         0.831054       2.056782
[...]
 -                                                                             -
 -                      DBCSR MESSAGE PASSING PERFORMANCE                      -
 -                                                                             -
 -------------------------------------------------------------------------------
 ROUTINE             CALLS      AVE VOLUME [Bytes]
 MP_Bcast              162                     12.
 MP_Allreduce         6571                     72.
 MP_Alltoall         10935                4117823.
 MP_ISend           657838                  18816.
 MP_IRecv           660062                  18559.
 -------------------------------------------------------------------------------

 -------------------------------------------------------------------------------
 -                                                                             -
 -                                DBM STATISTICS                               -
 -                                                                             -
 -------------------------------------------------------------------------------
    M  x    N  x    K                                          COUNT     PERCENT
 >999  x    ?  x    ?                                     6332858187       5.34%
   ??  x   ??  x   ??                                     6008666635       5.07%
   ??  x   ??  x    ?                                     1645915013       1.39%
   ??  x   ??  x  ???                                     1141109948       0.96%
   ??  x  ???  x   ??                                     1139556515       0.96%
   ??  x    ?  x  ???                                      889042117       0.75%
    ?  x   ??  x  ???                                      849240734       0.72%
    ?  x  ???  x   ??                                      800707230       0.68%
 >999  x    ?  x   ??                                      772678272       0.65%
    ?  x    ?  x  ???                                      657175174       0.55%
 >999  x   ??  x    ?                                      401991175       0.34%
    ?  x    ?  x    ?                                      315055116       0.27%
  ???  x  ???  x   ??                                      254504885       0.21%
  ???  x   ??  x  ???                                      212358896       0.18%
   ??  x  ???  x  ???                                      191250315       0.16%
  ???  x    ?  x  ???                                      167617247       0.14%
    ?  x  ???  x  ???                                      144416568       0.12%
 >999  x   ??  x   ??                                       48077891       0.04%
  ???  x  ???  x  ???                                       34839057       0.03%
    ?  x   ??  x   ??                                     4010687487       3.38%
   ??  x    ?  x   ??                                     8231204381       6.95%
   ??  x    ?  x    ?                                    25081407772      21.16%
  ???  x    ?  x   ??                                     7483143857       6.31%
    ?  x    ?  x   ??                                     2918026335       2.46%
  ???  x   ??  x    ?                                     2872872307       2.42%
  ???  x   ??  x   ??                                     1722685619       1.45%
  ???  x    ?  x    ?                                    44181292515      37.28%
 -------------------------------------------------------------------------------

 -------------------------------------------------------------------------------
 -                                                                             -
 -                                GRID STATISTICS                              -
 -                                                                             -
 -------------------------------------------------------------------------------
 LP    KERNEL             BACKEND                              COUNT     PERCENT
 2     collocate ortho    GPU                              221827172      15.19%
 2     integrate ortho    GPU                              220649540      15.11%
 1     collocate ortho    GPU                              212692874      14.56%
 1     integrate ortho    GPU                              212334801      14.54%
 3     collocate ortho    GPU                              118691803       8.13%
 3     integrate ortho    GPU                              117754707       8.06%
 0     collocate ortho    GPU                              101452233       6.95%
 0     integrate ortho    GPU                              101421157       6.94%
 2     integrate ortho    REF                               60901300       4.17%
 4     collocate ortho    GPU                               28380805       1.94%
 4     integrate ortho    GPU                               28122106       1.93%
 0     integrate ortho    REF                               10487040       0.72%
 4     integrate ortho    REF                                9640430       0.66%
 3     integrate ortho    REF                                7865280       0.54%
 5     collocate ortho    GPU                                2503408       0.17%
 5     integrate ortho    GPU                                2480456       0.17%
 0     collocate general  REF                                1256448       0.09%
 5     integrate ortho    REF                                1092400       0.07%
 0     integrate general  REF                                 628224       0.04%
 2     collocate ortho    REF                                 109396       0.01%
 4     collocate ortho    REF                                  61648       0.00%
 6     collocate ortho    GPU                                  54912       0.00%
 6     integrate ortho    GPU                                  54528       0.00%
 0     collocate ortho    REF                                   3072       0.00%
 3     collocate ortho    REF                                   2016       0.00%
 5     collocate ortho    REF                                    440       0.00%
 -------------------------------------------------------------------------------

 MEMORY| Estimated peak process memory [MiB]                                4513

 -------------------------------------------------------------------------------
 ----                             MULTIGRID INFO                            ----
 -------------------------------------------------------------------------------
 count for grid        1:       29784446          cutoff [a.u.]          450.00
 count for grid        2:       34734743          cutoff [a.u.]          150.00
 count for grid        3:       27479803          cutoff [a.u.]           50.00
 count for grid        4:       13446121          cutoff [a.u.]           16.67
 total gridlevel count  :      105445113

 -------------------------------------------------------------------------------
 -                                                                             -
 -                         MESSAGE PASSING PERFORMANCE                         -
 -                                                                             -
 -------------------------------------------------------------------------------

 ROUTINE             CALLS      AVE VOLUME [Bytes]
 MP_Group             8104
 MP_Bcast             9347                1275355.
 MP_Allreduce        25797                   1450.
 MP_Sync             18235
 MP_Alltoall         10281                3103311.
 MP_ISendRecv      1103834                  50974.
 MP_Wait           1132264
 MP_comm_split        4690
 MP_ISend          1134589                  50102.
 MP_IRecv          1160217                  48595.
 MP_Recv               184                 931568.
 -------------------------------------------------------------------------------


 -------------------------------------------------------------------------------
 -                                                                             -
 -                           R E F E R E N C E S                               -
 -                                                                             -
 -------------------------------------------------------------------------------
 
 CP2K version 2022.1 (Development Version), the CP2K developers group (2022).
 CP2K is freely available from https://www.cp2k.org/ .

 Kuehne,Thomas D.; Iannuzzi,Marcella; Del Ben,Mauro;
 Rybkin,Vladimir V.; Seewald,Patrick; Stein,Frederick; Laino,Teodoro;
 Khaliullin,Rustam Z.; Schuett,Ole; Schiffmann,Florian; Golze,Dorothea;
 Wilhelm,Jan; Chulkov,Sergey; Bani-Hashemian,Mohammad Hossein;
 Weber,Valery; Borstnik,Urban; Taillefumier,Mathieu;
 Jakobovits,Alice Shoshana; Lazzaro,Alfio; Pabst,Hans; Mueller,Tiziano;
 Schade,Robert; Guidon,Manuel; Andermatt,Samuel; Holmberg,Nico;
 Schenter,Gregory K.; Hehn,Anna; Bussy,Augustin; Belleflamme,Fabian;
 Tabacchi,Gloria; Gloess,Andreas; Lass,Michael; Bethune,Iain;
 Mundy,Christopher J.; Plessl,Christian; Watkins,Matt;
 VandeVondele,Joost; Krack,Matthias; Hutter,Juerg. 
 The Journal of Chemical Physics, 152 (19), (2020). 
 CP2K: An electronic structure and molecular dynamics software package -
 Quickstep: Efficient and accurate electronic structure calculations.
 https://doi.org/10.1063/5.0007045

 Stoychev, Georgi L.; Auer, Alexander A.; Neese, Frank. 
 Journal of Chemical Theory and Computation, 13 (2), 554-562 (2017). 
 Automatic Generation of Auxiliary Basis Sets.
 https://doi.org/10.1021/acs.jctc.6b01041

 Goerigk, Lars; Hansen, Andreas; Bauer, Christoph; Ehrlich, Stephan;
 Najibi, Asim; Grimme, Stefan. , 19 (48), (2017). 
 A look at the density functional theory zoo with the advanced GMTKN55 database
 for general main group thermochemistry, kinetics and noncovalent interactions.
 https://doi.org/10.1039/C7CP04913G

 Wilhelm, J; Seewald, P; Del Ben, M; Hutter, J. 
 JOURNAL OF CHEMICAL THEORY AND COMPUTATION, 12, 5851-5859 (2016). 
 Large-Scale Cubic-Scaling Random Phase Approximation Correlation.
 https://doi.org/10.1021/acs.jctc.6b00840

 Schuett, Ole; Messmer, Peter; Hutter, Juerg; VandeVondele, Joost. 
 Electronic Structure Calculations on Graphics Processing Units, John
 Wiley & Sons, Ltd, 173-190 (2016). 
 GPU-Accelerated Sparse Matrix-Matrix Multiplication for
 Linear Scaling Density Functional Theory.
 https://doi.org/10.1002/9781118670712.ch8

 Heinecke, A; Henry, G; Hutchinson, M; Pabst, H. 
 Proceedings of Intl. Supercomputing Conference, 981-991 (2016). 
 LIBXSMM: Accelerating Small Matrix Multiplications
 by Runtime Code Generation.
 https://doi.org/10.1109/SC.2016.83

 Del Ben, M; Schuett, O; Wentz, T; Messmer, P; Hutter, J;
 VandeVondele, J. 
 COMPUTER PHYSICS COMMUNICATIONS, 187, 120-129 (2015). 
 Enabling simulation at the fifth rung of DFT: Large scale RPA
 calculations with excellent time to solution.
 https://doi.org/10.1016/j.cpc.2014.10.021

 Borstnik, U; VandeVondele, J; Weber, V; Hutter, J. 
 PARALLEL COMPUTING, 40 (5-6), 47-58 (2014). 
 Sparse matrix multiplication: The distributed block-compressed sparse
 row library.
 https://doi.org/10.1016/j.parco.2014.03.012

 Hutter, J; Iannuzzi, M; Schiffmann, F; VandeVondele, J. 
 WIREs Comput Mol Sci., 4 (1), 15-25 (2014). 
 CP2K: atomistic simulations of condensed matter systems.
 https://doi.org/10.1002/wcms.1159

 Del Ben, M; Hutter, J; VandeVondele, J. 
 JOURNAL OF CHEMICAL THEORY AND COMPUTATION, 9 (6), 2654-2671 (2013). 
 Electron Correlation in the Condensed Phase from a Resolution of
 Identity Approach Based on the Gaussian and Plane Waves Scheme.
 https://doi.org/10.1021/ct4002202

 Del Ben, M; Hutter, J; VandeVondele, J. 
 JOURNAL OF CHEMICAL THEORY AND COMPUTATION, 8 (11), 4177-4188 (2012). 
 Second-Order Moller-Plesset Perturbation Theory in the Condensed Phase:
 An Efficient and Massively Parallel Gaussian and Plane Waves Approach.
 https://doi.org/10.1021/ct300531w

 Grimme, S; Ehrlich, S; Goerigk, L. 
 JOURNAL OF COMPUTATIONAL CHEMISTRY, 32, 1456 (2011). 
 Effect of the damping function in dispersion corrected density functional theory.
 https://doi.org/10.1002/jcc.21759

 Guidon, M; Hutter, J; VandeVondele, J. 
 JOURNAL OF CHEMICAL THEORY AND COMPUTATION, 6 (8), 2348-2364 (2010). 
 Auxiliary Density Matrix Methods for Hartree-Fock Exchange Calculations.
 https://doi.org/10.1021/ct1002225

 Grimme, S; Antony, J; Ehrlich, S; Krieg, H. 
 JOURNAL OF CHEMICAL PHYSICS, 132 (15), 154104 (2010). 
 A consistent and accurate ab initio parametrization of density
 functional dispersion correction (DFT-D) for the 94 elements H-Pu.
 https://doi.org/10.1063/1.3382344

 Guidon, M; Hutter, J; VandeVondele, J. 
 JOURNAL OF CHEMICAL THEORY AND COMPUTATION, 5 (11), 3010-3021 (2009). 
 Robust Periodic Hartree-Fock Exchange for Large-Scale Simulations Using
 Gaussian Basis Sets.
 https://doi.org/10.1021/ct900494g

 Guidon, M; Schiffmann, F; Hutter, J; VandeVondele, J. 
 JOURNAL OF CHEMICAL PHYSICS, 128 (21), 214104 (2008). 
 Ab initio molecular dynamics using hybrid density functionals.
 https://doi.org/10.1063/1.2931945

 VandeVondele, J; Hutter, J. 
 JOURNAL OF CHEMICAL PHYSICS, 127 (11), 114105 (2007). 
 Gaussian basis sets for accurate calculations on molecular systems in
 gas and condensed phases.
 https://doi.org/10.1063/1.2770708

 Krack, M. 
 THEORETICAL CHEMISTRY ACCOUNTS, 114 (1-3), 145-152 (2005). 
 Pseudopotentials for H to Kr optimized for gradient-corrected
 exchange-correlation functionals.
 https://doi.org/10.1007/s00214-005-0655-y

 VandeVondele, J; Krack, M; Mohamed, F; Parrinello, M; Chassaing, T;
 Hutter, J. COMPUTER PHYSICS COMMUNICATIONS, 167 (2), 103-128 (2005). 
 QUICKSTEP: Fast and accurate density functional calculations using a
 mixed Gaussian and plane waves approach.
 https://doi.org/10.1016/j.cpc.2004.12.014

 Frigo, M; Johnson, SG. 
 PROCEEDINGS OF THE IEEE, 93 (2), 216-231 (2005). 
 The design and implementation of FFTW3.
 https://doi.org/10.1109/JPROC.2004.840301

 VandeVondele, J; Hutter, J. 
 JOURNAL OF CHEMICAL PHYSICS, 118 (10), 4365-4369 (2003). 
 An efficient orbital transformation method for electronic structure
 calculations.
 https://doi.org/10.1063/1.1543154

 Hartwigsen, C; Goedecker, S; Hutter, J. 
 PHYSICAL REVIEW B, 58 (7), 3641-3662 (1998). 
 Relativistic separable dual-space Gaussian pseudopotentials from H to Rn.
 https://doi.org/10.1103/PhysRevB.58.3641

 Lippert, G; Hutter, J; Parrinello, M. 
 MOLECULAR PHYSICS, 92 (3), 477-487 (1997). 
 A hybrid Gaussian and plane wave density functional scheme.
 https://doi.org/10.1080/002689797170220

 Perdew, JP; Burke, K; Ernzerhof, M. 
 PHYSICAL REVIEW LETTERS, 77 (18), 3865-3868 (1996). 
 Generalized gradient approximation made simple.
 https://doi.org/10.1103/PhysRevLett.77.3865

 Goedecker, S; Teter, M; Hutter, J. 
 PHYSICAL REVIEW B, 54 (3), 1703-1710 (1996). 
 Separable dual-space Gaussian pseudopotentials.
 https://doi.org/10.1103/PhysRevB.54.1703


 -------------------------------------------------------------------------------
 -                                                                             -
 -                                T I M I N G                                  -
 -                                                                             -
 -------------------------------------------------------------------------------
 SUBROUTINE                       CALLS  ASD         SELF TIME        TOTAL TIME
                                MAXIMUM       AVERAGE  MAXIMUM  AVERAGE  MAXIMUM
 CP2K                                 1  1.0    0.230    0.579 3555.499 3555.513
 qs_energies                          1  2.0    0.015    0.087 3550.931 3550.958
 scf_env_do_scf                       1  3.0    0.000    0.005 1993.284 1993.290
 integrate_four_center               72  8.9    7.872    8.537 1973.685 1973.728
 integrate_four_center_main          72  9.9    9.222   28.441 1800.918 1897.481
 integrate_four_center_bin         4921 10.9 1791.696 1880.751 1791.696 1880.751
 qs_ks_update_qs_env                 73  5.0    0.001    0.019 1852.048 1852.104
 rebuild_ks_matrix                   71  6.0    0.000    0.005 1851.983 1852.038
 qs_ks_build_kohn_sham_matrix        71  7.0    0.020    0.223 1851.983 1852.038
 scf_env_do_scf_inner_loop           71  4.0    0.005    0.095 1845.926 1845.980
 hfx_ks_matrix                       71  8.0    0.008    0.040 1753.908 1754.100
 mp2_main                             1  3.0    0.001    0.021 1541.558 1541.576
 mp2_gpw_main                         1  4.0    0.015    0.138 1317.160 1317.241
 rpa_ri_compute_en                    1  5.0    0.061    0.249  957.250  957.293
 rpa_num_int                          1  6.0    0.008    0.290  957.019  957.054
 compute_mat_P_omega                  1  7.0    0.002    0.027  882.653  882.925
 compute_mat_P_omega_contract        20  8.0    3.338    5.095  874.365  874.613
 dbt_total                         4312  9.7    0.027    0.034  855.811  855.897
 dbt_contract                      1500 11.0    0.106    0.132  697.699  698.109
 dbt_tas_total                     2123 12.1    0.370    1.460  668.809  668.842
 dbt_tas_multiply                  1503 12.0    0.004    0.007  667.875  667.923
 dbt_tas_dbm                       1503 14.0    0.007    0.009  530.690  530.732
 dbm_multiply                      1503 16.0  422.299  490.305  422.299  490.305
 mp_sync                          18235 12.0  291.467  458.040  291.467  458.040
 compute_mat_P_omega_calc_P_t       500  9.0    0.002    0.002  440.222  440.243
 dbt_tas_mm_2                       501 15.0    0.003    0.004  415.190  415.206
 mp2_ri_gpw_compute_in                1  5.0    0.034    0.225  359.792  359.822
 get_2c_integrals                     1  6.0    0.003    0.020  335.825  335.845
 compute_2c_integrals                 1  7.0    0.007    0.026  327.080  327.099
 fill_fm_L_from_L_loc_non_block       1  8.0    0.000    0.000  291.784  306.623
 fill_fm_L_from_L_loc_non_block       1  9.0  291.553  306.390  291.553  306.390
 calculate_exx                        1  4.0    0.000    0.027  219.821  219.861
 compute_mat_P_omega_calc_M_occ     500  9.0    3.316    5.062  187.654  187.662
 init_scf_loop                        2  4.0    0.002    0.052  147.290  147.385
 dbcsr_multiply_generic            1735 10.2    0.139    0.194  130.548  139.080
 dbt_copy                          2082 10.7    0.115    0.168  127.538  136.848
 dbt_reshape                       2074 11.7   24.979   31.172  125.967  135.303
 mp_waitall_2                      6660 15.1  113.242  119.362  113.242  119.362
 compute_mat_P_omega_calc_M_vir     500  9.0    0.002    0.002  115.817  115.837
 mp_waitall_1                   1692546 12.8   90.454  112.839   90.454  112.839
 multiply_cannon                   1735 11.2    0.917    1.013  101.345  109.426
 multiply_cannon_loop              1735 12.2    5.438    5.880   96.922  105.113
 qs_scf_new_mos                      71  5.0    0.001    0.017  104.237  104.668
 qs_scf_loop_do_ot                   71  6.0    0.004    0.058  104.236  104.668
 ot_scf_mini                         71  7.0    0.003    0.101   99.190   99.522
 dbt_communicate_buffer            2074 12.7    0.701    0.811   92.389   96.079
 dbt_tas_mm_1N                     1002 15.0    0.003    0.004   61.592   85.767
 -------------------------------------------------------------------------------

 The number of warnings for this run is : 10
 
 -------------------------------------------------------------------------------
  **** **** ******  **  PROGRAM ENDED AT                 2023-01-19 23:03:05.181
 ***** ** ***  *** **   PROGRAM RAN ON                                  nid01930
 **    ****   ******    PROGRAM RAN BY                                     ahehn
 ***** **    ** ** **   PROGRAM PROCESS ID                                 20157
  **** **  *******  **  PROGRAM STOPPED IN /scratch/snx3000/ahehn/OKTOBER_2022_M
                                           FU_MOFS/Br_Xe_MOF/RPA_34/DZbasis
