 DBCSR| CPU Multiplication driver                                           XSMM (U)
 DBCSR| Multrec recursion limit                                              512 (U)
 DBCSR| Multiplication stack size                                           1000 (D)
 DBCSR| Maximum elements for images                                    UNLIMITED (U)
 DBCSR| Multiplicative factor virtual images                                   1 (U)
 DBCSR| Use multiplication densification                                       T (D)
 DBCSR| Multiplication size stacks                                             3 (U)
 DBCSR| Use memory pool for CPU allocation                                     F (U)
 DBCSR| Number of 3D layers                                               SINGLE (U)
 DBCSR| Use MPI memory allocation                                              F (U)
 DBCSR| Use RMA algorithm                                                      F (U)
 DBCSR| Use Communication thread                                               T (U)
 DBCSR| Communication thread load                                             87 (D)
 DBCSR| MPI: My process id                                                     0
 DBCSR| MPI: Number of processes                                              72
 DBCSR| OMP: Current number of threads                                         1
 DBCSR| OMP: Max number of threads                                             1
 DBCSR| Split modifier for TAS multiplication algorithm                  1.0E+00 (U)


  **** **** ******  **  PROGRAM STARTED AT               2024-09-13 00:17:29.110
 ***** ** ***  *** **   PROGRAM STARTED ON                              nid07228
 **    ****   ******    PROGRAM STARTED BY                              bsertcan
 ***** **    ** ** **   PROGRAM PROCESS ID                                  3729
  **** **  *******  **  PROGRAM STARTED IN /scratch/snx3000/bsertcan/MFU_sp/cl/x
                                           e/rep41

 CP2K| version string:                 CP2K version 2024.2 (Development Version)
 CP2K| source code revision number:                                  git:42d1e6b
 CP2K| cp2kflags: omp libint fftw3 libxc parallel scalapack xsmm                
 CP2K| is freely available from                            https://www.cp2k.org/
 CP2K| Program compiled at                         Tue Sep  3 22:59:39 CEST 2024
 CP2K| Program compiled on                                              daint106
 CP2K| Program compiled for                                                local
 CP2K| Data directory path                             /users/bsertcan/cp2k/data
 CP2K| Input file name                                                 input.inp

 GLOBAL| Force Environment number                                              1
 GLOBAL| Basis set file name                                    BASIS_MOLOPT_UZH
 GLOBAL| Potential file name                                       POTENTIAL_UZH
 GLOBAL| MM Potential file name                                     MM_POTENTIAL
 GLOBAL| Coordinate file name                                         rep_41.xyz
 GLOBAL| Method name                                                        CP2K
 GLOBAL| Project name                                                 Replica_41
 GLOBAL| Run type                                                         ENERGY
 GLOBAL| FFT library                                                       FFTW3
 GLOBAL| Diagonalization library                                       ScaLAPACK
 GLOBAL| DGEMM library                                                      BLAS
 GLOBAL| Orthonormality check for eigenvectors                          DISABLED
 GLOBAL| Matrix multiplication library                                 ScaLAPACK
 GLOBAL| All-to-all communication in single precision                          F
 GLOBAL| FFTs using library dependent lengths                                  F
 GLOBAL| Grid backend                                                       AUTO
 GLOBAL| Global print level                                                  LOW
 GLOBAL| MPI I/O enabled                                                       T
 GLOBAL| Total number of message passing processes                            72
 GLOBAL| Number of threads for this process                                    1
 GLOBAL| This output is from process                                           0
 GLOBAL| Stack size for threads created by OpenMP (OMP_STACKSIZE)             5M
 GLOBAL| CPU model name                Intel(R) Xeon(R) CPU E5-2690 v3 @ 2.60GHz
 GLOBAL| CPUID                                                              1002

 MEMORY| system memory details [Kb]
 MEMORY|                        rank 0           min           max       average
 MEMORY| MemTotal             65740148      65740148      65740148      65740148
 MEMORY| MemFree              60839340      60839340      60986300      60932161
 MEMORY| Buffers                  9212          8780          9212          8966
 MEMORY| Cached                1908116       1808668       1908116       1847957
 MEMORY| Slab                   221708        217184        221708        218563
 MEMORY| SReclaimable            52432         50744         52432         51205
 MEMORY| MemLikelyFree        62809100      62809100      62855016      62840290


 *******************************************************************************
 *******************************************************************************
 **                                                                           **
 **     #####                         ##              ##                      **
 **    ##   ##            ##          ##              ##                      **
 **   ##     ##                       ##            ######                    **
 **   ##     ##  ##   ##  ##   #####  ##  ##   ####   ##    #####    #####    **
 **   ##     ##  ##   ##  ##  ##      ## ##   ##      ##   ##   ##  ##   ##   **
 **   ##  ## ##  ##   ##  ##  ##      ####     ###    ##   ######   ######    **
 **    ##  ###   ##   ##  ##  ##      ## ##      ##   ##   ##       ##        **
 **     #######   #####   ##   #####  ##  ##  ####    ##    #####   ##        **
 **           ##                                                    ##        **
 **                                                                           **
 **                                                ... make the atoms dance   **
 **                                                                           **
 **            Copyright (C) by CP2K developers group (2000-2024)             **
 **                      J. Chem. Phys. 152, 194103 (2020)                    **
 **                                                                           **
 *******************************************************************************


 TOTAL NUMBERS AND MAXIMUM NUMBERS

  Total number of            - Atomic kinds:                                   6
                             - Atoms:                                        409
                             - Shell sets:                                   409
                             - Shells:                                      3617
                             - Primitive Cartesian functions:               2053
                             - Cartesian basis functions:                  13634
                             - Spherical basis functions:                  11621

  Maximum angular momentum of- Orbital basis functions:                        3
                             - Local part of the GTH pseudopotential:          2
                             - Non-local part of the GTH pseudopotential:      4

  AUX_FIT ADMM-Basis: 
  Total number of            - Shell sets:                                  2799
                             - Shells:                                      2799
                             - Primitive Cartesian functions:               3609
                             - Cartesian basis functions:                   7546
                             - Spherical basis functions:                   6985
                               Maximum angular momentum                        3


 SCF PARAMETERS         Density guess:                                   RESTART
                        --------------------------------------------------------
                        max_scf:                                              10
                        max_scf_history:                                       0
                        max_diis:                                              4
                        --------------------------------------------------------
                        eps_scf:                                        1.00E-06
                        eps_scf_history:                                0.00E+00
                        eps_diis:                                       1.00E-01
                        eps_eigval:                                     1.00E-05
                        --------------------------------------------------------
                        level_shift [a.u.]:                             0.000000
                        --------------------------------------------------------
                        Outer loop SCF in use 
                        No variables optimised in outer loop
                        eps_scf                                         1.00E-06
                        max_scf                                               10
                        No outer loop optimization
                        step_size                                       5.00E-01

  HFX_INFO| Replica ID:                                                        1
  HFX_INFO| FRACTION:                                               0.2500000000
  HFX_INFO| Interaction Potential:                                     TRUNCATED
  HFX_INFO| Cutoff Radius [angstrom]:                               6.0000000000
  HFX_INFO| EPS_SCHWARZ:                                                 1.0E-08
  HFX_INFO| EPS_SCHWARZ_FORCES                                           1.0E-06
  HFX_INFO| EPS_STORAGE_SCALING:                                         1.0E+00
  HFX_INFO| NBINS:                                                            64
  HFX_INFO| BLOCK_SIZE:                                                        5
  HFX_INFO| NUMBER_OF_SHELLS:                                               AUTO
  HFX_INFO| Number of periodic shells considered:                             -1
  HFX_INFO| Number of periodic cells considered:                              27


 Number of electrons:                                                       2056
 Number of occupied orbitals:                                               1028
 Number of molecular orbitals:                                              1028

 Number of orbital functions:                                              11621
 Number of independent orbital functions:                                  11621

 Extrapolation method: initial_guess

 *** WARNING in qs_initial_guess.F:306 :: User requested to restart the   ***
 *** wavefunction from the file named: Replica_41-RESTART.wfn. This file  ***
 *** does not exist. Please check the existence of the file or change     ***
 *** properly the value of the keyword WFN_RESTART_FILE_NAME. Calculation ***
 *** continues using ATOMIC GUESS.                                        ***



 SCF WAVEFUNCTION OPTIMIZATION

  ----------------------------------- OT ---------------------------------------
  Minimizer      : DIIS                : direct inversion
                                         in the iterative subspace
                                         using   7 DIIS vectors
                                         safer DIIS on
  Preconditioner : FULL_SINGLE_INVERSE : inversion of 
                                         H + eS - 2*(Sc)(c^T*H*c+const)(Sc)^T
  Precond_solver : DEFAULT
  stepsize       :    0.08000000                  energy_gap     :    0.08000000
  eps_taylor     :   0.10000E-15                  max_taylor     :             4
  ----------------------------------- OT ---------------------------------------

  Step     Update method      Time    Convergence         Total energy    Change
  ------------------------------------------------------------------------------

  HFX_MEM_INFO| Est. max. program size before HFX [MiB]:                     709

 *** WARNING in hfx_energy_potential.F:587 :: The Kohn Sham matrix is not ***
 *** 100% occupied. This may result in incorrect Hartree-Fock results.    ***
 *** Setting MIN_PAIR_LIST_RADIUS to -1 in the QS section ensures a fully ***
 *** occupied KS matrix. For more information see FAQ:                    ***
 *** https://www.cp2k.org/faq:hfx_eps_warning                             ***

  HFX_MEM_INFO| Number of cart. primitive ERI's calculated:         567295805520
  HFX_MEM_INFO| Number of sph. ERI's calculated:                    306211727069
  HFX_MEM_INFO| Number of sph. ERI's stored in-core:                264396140075
  HFX_MEM_INFO| Number of sph. ERI's stored on disk:                           0
  HFX_MEM_INFO| Number of sph. ERI's calculated on the fly:          35337420045
  HFX_MEM_INFO| Total memory consumption ERI's RAM [MiB]:                 235227
  HFX_MEM_INFO| Whereof max-vals [MiB]:                                     4263
  HFX_MEM_INFO| Total compression factor ERI's RAM:                         8.58
  HFX_MEM_INFO| Total memory consumption ERI's disk [MiB]:                     0
  HFX_MEM_INFO| Total compression factor ERI's disk:                        0.00
  HFX_MEM_INFO| Size of density/Fock matrix [MiB]:                           154
  HFX_MEM_INFO| Size of buffers [MiB]:                                        79
  HFX_MEM_INFO| Number of periodic image cells considered:                    27
  HFX_MEM_INFO| Est. max. program size after HFX  [MiB]:                    4178

     1 OT DIIS     0.80E-01  437.4     0.01148378     -5005.1387255322 -5.01E+03
     2 OT DIIS     0.80E-01  107.7     0.00705590     -5083.6153923985 -7.85E+01
     3 OT DIIS     0.80E-01  107.7     0.00639186     -5122.6067168532 -3.90E+01
     4 OT DIIS     0.80E-01  107.7     0.00617827     -5145.8570147208 -2.33E+01
     5 OT DIIS     0.80E-01  107.7     0.00345544     -5184.1114894867 -3.83E+01
     6 OT DIIS     0.80E-01  107.8     0.00268044     -5196.5539472412 -1.24E+01
     7 OT DIIS     0.80E-01  107.9     0.00198115     -5206.1902039887 -9.64E+00
     8 OT DIIS     0.80E-01  107.7     0.00133508     -5213.1983080493 -7.01E+00
     9 OT DIIS     0.80E-01  107.7     0.00117301     -5215.4420464159 -2.24E+00
    10 OT DIIS     0.80E-01  108.2     0.00082709     -5218.4068757784 -2.96E+00

  Leaving inner SCF loop after reaching    10 steps.


  Electronic density on regular grids:      -2055.9999999820        0.0000000180
  Core density on regular grids:             2055.9999998531       -0.0000001469
  Total charge density on r-space grids:       -0.0000001288
  Total charge density g-space grids:          -0.0000001288

  Overlap energy of the core charge distribution:               0.00004703738220
  Self energy of the core charge distribution:              -9860.83173999830615
  Core Hamiltonian energy:                                   2921.97877270894742
  Hartree energy:                                            2792.33545066458100
  Exchange-correlation energy:                               -842.20202387337633
  Hartree-Fock Exchange energy:                              -228.86452455741809
  Dispersion energy:                                           -0.82285776018290

  Total energy:                                             -5218.40687577837252

  outer SCF iter =    1 RMS gradient =   0.83E-03 energy =      -5218.4068757784

  ----------------------------------- OT ---------------------------------------
  Minimizer      : DIIS                : direct inversion
                                         in the iterative subspace
                                         using   7 DIIS vectors
                                         safer DIIS on
  Preconditioner : FULL_SINGLE_INVERSE : inversion of 
                                         H + eS - 2*(Sc)(c^T*H*c+const)(Sc)^T
  Precond_solver : DEFAULT
  stepsize       :    0.08000000                  energy_gap     :    0.08000000
  eps_taylor     :   0.10000E-15                  max_taylor     :             4
  ----------------------------------- OT ---------------------------------------

  Step     Update method      Time    Convergence         Total energy    Change
  ------------------------------------------------------------------------------
     1 OT DIIS     0.80E-01  220.3     0.00130900     -5219.5935421152 -1.19E+00
     2 OT DIIS     0.80E-01  107.8     0.00112937     -5221.1090745863 -1.52E+00
     3 OT DIIS     0.80E-01  107.8     0.00066892     -5223.2287919902 -2.12E+00
     4 OT DIIS     0.80E-01  107.9     0.00053877     -5223.6886287053 -4.60E-01
     5 OT DIIS     0.80E-01  107.7     0.00042441     -5223.8949983072 -2.06E-01
     6 OT DIIS     0.80E-01  107.6     0.00031846     -5224.0394165642 -1.44E-01
     7 OT DIIS     0.80E-01  107.6     0.00028365     -5224.0874388663 -4.80E-02
     8 OT SD       0.80E-01  107.5     0.00029002     -5224.1200350400 -3.26E-02
     9 OT DIIS     0.80E-01  107.7     0.00027311     -5224.1983577232 -7.83E-02
    10 OT DIIS     0.80E-01  107.7     0.00028966     -5224.2279932762 -2.96E-02

  Leaving inner SCF loop after reaching    10 steps.


  Electronic density on regular grids:      -2055.9999999820        0.0000000180
  Core density on regular grids:             2055.9999998531       -0.0000001469
  Total charge density on r-space grids:       -0.0000001288
  Total charge density g-space grids:          -0.0000001288

  Overlap energy of the core charge distribution:               0.00004703738220
  Self energy of the core charge distribution:              -9860.83173999830615
  Core Hamiltonian energy:                                   2917.89026268526686
  Hartree energy:                                            2792.51050742708594
  Exchange-correlation energy:                               -842.52349148846281
  Hartree-Fock Exchange energy:                              -230.45072117901270
  Dispersion energy:                                           -0.82285776018290

  Total energy:                                             -5224.22799327623034

  outer SCF iter =    2 RMS gradient =   0.29E-03 energy =      -5224.2279932762

  ----------------------------------- OT ---------------------------------------
  Minimizer      : DIIS                : direct inversion
                                         in the iterative subspace
                                         using   7 DIIS vectors
                                         safer DIIS on
  Preconditioner : FULL_SINGLE_INVERSE : inversion of 
                                         H + eS - 2*(Sc)(c^T*H*c+const)(Sc)^T
  Precond_solver : DEFAULT
  stepsize       :    0.08000000                  energy_gap     :    0.08000000
  eps_taylor     :   0.10000E-15                  max_taylor     :             4
  ----------------------------------- OT ---------------------------------------

  Step     Update method      Time    Convergence         Total energy    Change
  ------------------------------------------------------------------------------
     1 OT DIIS     0.80E-01  219.4     0.00024205     -5224.2792148066 -5.12E-02
     2 OT DIIS     0.80E-01  107.7     0.00017791     -5224.3253154752 -4.61E-02
     3 OT DIIS     0.80E-01  107.9     0.00014582     -5224.3529750369 -2.77E-02
     4 OT DIIS     0.80E-01  107.5     0.00004751     -5224.3678559614 -1.49E-02
     5 OT DIIS     0.80E-01  107.1     0.00001980     -5224.3684076263 -5.52E-04
     6 OT DIIS     0.80E-01  107.2     0.00001057     -5224.3685705465 -1.63E-04
     7 OT DIIS     0.80E-01  107.5     0.00000620     -5224.3686571188 -8.66E-05
     8 OT DIIS     0.80E-01  107.4     0.00000314     -5224.3686925444 -3.54E-05
     9 OT DIIS     0.80E-01  107.2     0.00000170     -5224.3686995973 -7.05E-06
    10 OT DIIS     0.80E-01  107.6     0.00000092     -5224.3687018244 -2.23E-06

  *** SCF run converged in    10 steps ***


  Electronic density on regular grids:      -2055.9999999820        0.0000000180
  Core density on regular grids:             2055.9999998531       -0.0000001469
  Total charge density on r-space grids:       -0.0000001288
  Total charge density g-space grids:          -0.0000001288

  Overlap energy of the core charge distribution:               0.00004703738220
  Self energy of the core charge distribution:              -9860.83173999830615
  Core Hamiltonian energy:                                   2917.80333584753862
  Hartree energy:                                            2792.50607880413918
  Exchange-correlation energy:                               -842.52422558525041
  Hartree-Fock Exchange energy:                              -230.49934016972759
  Dispersion energy:                                           -0.82285776018290

  Total energy:                                             -5224.36870182440816

  outer SCF iter =    3 RMS gradient =   0.92E-06 energy =      -5224.3687018244
  outer SCF loop converged in   3 iterations or   30 steps


 ENERGY| Total FORCE_EVAL ( QS ) energy [a.u.]:            -5224.368701824408163

 -------------------------------------------------------------------------------
 -                                                                             -
 -                                DBCSR STATISTICS                             -
 -                                                                             -
 -------------------------------------------------------------------------------
 COUNTER                                    TOTAL       BLAS       SMM       ACC
 flops     4 x     4 x   917                88032       0.0%    100.0%      0.0%     
 flops     4 x     4 x   920                88320       0.0%    100.0%      0.0%     
 flops     4 x     4 x   938                90048       0.0%    100.0%      0.0%     
 flops    14 x     4 x     4               129024       0.0%    100.0%      0.0%     
 flops    41 x     4 x     4               314880       0.0%    100.0%      0.0%     
 flops    29 x     4 x     4              1787328       0.0%    100.0%      0.0%     
 flops    32 x     4 x   917             11268096       0.0%    100.0%      0.0%     
 flops     4 x    32 x   917             11268096       0.0%    100.0%      0.0%     
 flops    32 x     4 x   920             11304960       0.0%    100.0%      0.0%     
 flops     4 x    32 x   920             11304960       0.0%    100.0%      0.0%     
 flops    32 x     4 x   938             11526144       0.0%    100.0%      0.0%     
 flops     4 x    32 x   938             11526144       0.0%    100.0%      0.0%     
 flops    14 x    32 x     4             16515072       0.0%    100.0%      0.0%     
 flops    14 x     4 x    32             16515072       0.0%    100.0%      0.0%     
 flops    41 x    32 x     4             40304640       0.0%    100.0%      0.0%     
 flops    41 x     4 x    32             40304640       0.0%    100.0%      0.0%     
 flops     6 x     6 x    68             71677440       0.0%    100.0%      0.0%     
 flops    31 x     6 x    68            109278720       0.0%    100.0%      0.0%     
 flops    14 x     4 x    14            111390720       0.0%    100.0%      0.0%     
 flops     6 x     6 x    64            202383360       0.0%    100.0%      0.0%     
 flops    29 x    32 x     4            228777984       0.0%    100.0%      0.0%     
 flops    29 x     4 x    32            228777984       0.0%    100.0%      0.0%     
 flops    31 x     6 x    64            308551680       0.0%    100.0%      0.0%     
 flops   164 x    68 x    68            385234688       0.0%    100.0%      0.0%     
 flops    41 x    14 x    68            393442560       0.0%    100.0%      0.0%     
 flops    14 x    14 x    68            510515712       0.0%    100.0%      0.0%     
 flops    41 x     4 x    14            521945088       0.0%    100.0%      0.0%     
 flops    14 x     4 x    41            521945088       0.0%    100.0%      0.0%     
 flops     6 x    31 x    68            764951040       0.0%    100.0%      0.0%     
 flops     6 x     6 x    96            809533440       0.0%    100.0%      0.0%     
 flops   192 x    68 x    68            902012928       0.0%    100.0%      0.0%     
 flops     6 x    17 x    68            943018560       0.0%    100.0%      0.0%     
 flops   164 x    64 x    68           1087721472       0.0%    100.0%      0.0%     
 flops   164 x    68 x    64           1087721472       0.0%    100.0%      0.0%     
 flops    41 x    14 x    64           1110896640       0.0%    100.0%      0.0%     
 flops   160 x    68 x    68           1127516160       0.0%    100.0%      0.0%     
 flops    17 x     6 x    68           1127793600       0.0%    100.0%      0.0%     
 flops    31 x     6 x    96           1234206720       0.0%    100.0%      0.0%     
 flops    14 x    14 x    64           1441456128       0.0%    100.0%      0.0%     
 flops    41 x     4 x    41           1584281984       0.0%    100.0%      0.0%     
 flops    14 x     4 x    29           1732457216       0.0%    100.0%      0.0%     
 flops    29 x     4 x    14           1732457216       0.0%    100.0%      0.0%     
 flops     6 x    31 x    64           2159861760       0.0%    100.0%      0.0%     
 flops   164 x    68 x   917           2392973856       0.0%    100.0%      0.0%     
 flops   164 x    68 x   920           2400802560       0.0%    100.0%      0.0%     
 flops   164 x    68 x   938           2447774784       0.0%    100.0%      0.0%     
 flops   192 x    64 x    68           2546860032       0.0%    100.0%      0.0%     
 flops   192 x    68 x    64           2546860032       0.0%    100.0%      0.0%     
 flops  1925 x    68 x    68           2563545600       0.0%    100.0%      0.0%     
 flops  1948 x    68 x    68           2594174976       0.0%    100.0%      0.0%     
 flops    31 x    31 x    68           2650514880       0.0%    100.0%      0.0%     
 flops     6 x    17 x    64           2662640640       0.0%    100.0%      0.0%     
 flops    32 x    32 x   917           2974777344       0.0%    100.0%      0.0%     
 flops    32 x    32 x   920           2984509440       0.0%    100.0%      0.0%     
 flops    32 x    32 x   938           3042902016       0.0%    100.0%      0.0%     
 flops   164 x    64 x    64           3071213568       0.0%    100.0%      0.0%     
 flops   160 x    64 x    68           3183575040       0.0%    100.0%      0.0%     
 flops   160 x    68 x    64           3183575040       0.0%    100.0%      0.0%     
 flops    17 x     6 x    64           3184358400       0.0%    100.0%      0.0%     
 flops    14 x    41 x    68           3773301504       0.0%    100.0%      0.0%     
 flops   164 x    68 x    96           4350885888       0.0%    100.0%      0.0%     
 flops   164 x    96 x    68           4350885888       0.0%    100.0%      0.0%     
 flops    14 x    32 x    32           4359979008       0.0%    100.0%      0.0%     
 flops    41 x    14 x    96           4443586560       0.0%    100.0%      0.0%     
 flops  1936 x    68 x    68           5156388864       0.0%    100.0%      0.0%     
 flops  1938 x    68 x    68           5161715712       0.0%    100.0%      0.0%     
 flops   192 x    68 x   917           5603060736       0.0%    100.0%      0.0%     
 flops   192 x    68 x   920           5621391360       0.0%    100.0%      0.0%     
 flops   192 x    68 x   938           5731375104       0.0%    100.0%      0.0%     
 flops    14 x    14 x    96           5765824512       0.0%    100.0%      0.0%     
 flops    41 x    41 x    68           6345465696       0.0%    100.0%      0.0%     
 flops    14 x    29 x    68           6366183936       0.0%    100.0%      0.0%     
 flops   164 x    64 x   917           6756632064       0.0%    100.0%      0.0%     
 flops   164 x    64 x   920           6778736640       0.0%    100.0%      0.0%     
 flops   164 x    64 x   938           6911364096       0.0%    100.0%      0.0%     
 flops   160 x    68 x   917           7003825920       0.0%    100.0%      0.0%     
 flops   160 x    68 x   920           7026739200       0.0%    100.0%      0.0%     
 flops   160 x    68 x   938           7164218880       0.0%    100.0%      0.0%     
 flops   192 x    64 x    64           7191134208       0.0%    100.0%      0.0%     
 flops  1925 x    64 x    68           7238246400       0.0%    100.0%      0.0%     
 flops  1925 x    68 x    64           7238246400       0.0%    100.0%      0.0%     
 flops  1948 x    64 x    68           7324729344       0.0%    100.0%      0.0%     
 flops  1948 x    68 x    64           7324729344       0.0%    100.0%      0.0%     
 flops    17 x    31 x    68           7461055200       0.0%    100.0%      0.0%     
 flops    31 x    31 x    64           7483806720       0.0%    100.0%      0.0%     
 flops  1925 x    68 x   917           7922329800       0.0%    100.0%      0.0%     
 flops  1925 x    68 x   920           7948248000       0.0%    100.0%      0.0%     
 flops  1948 x    68 x   917           8016986208       0.0%    100.0%      0.0%     
 flops  1948 x    68 x   920           8043214080       0.0%    100.0%      0.0%     
 flops  1925 x    68 x   938           8103757200       0.0%    100.0%      0.0%     
 flops  1948 x    68 x   938           8200581312       0.0%    100.0%      0.0%     
 flops    41 x     4 x    29           8426947136       0.0%    100.0%      0.0%     
 flops    29 x     4 x    41           8426947136       0.0%    100.0%      0.0%     
 flops    29 x    14 x    68           8524025216       0.0%    100.0%      0.0%     
 flops     6 x    31 x    96           8639447040       0.0%    100.0%      0.0%     
 flops   160 x    64 x    64           8988917760       0.0%    100.0%      0.0%     
 flops    31 x    17 x    68           9912237600       0.0%    100.0%      0.0%     
 flops   192 x    96 x    68          10187440128       0.0%    100.0%      0.0%     
 flops   192 x    68 x    96          10187440128       0.0%    100.0%      0.0%     
 flops    41 x    32 x    32          10640424960       0.0%    100.0%      0.0%     
 flops     6 x    17 x    96          10650562560       0.0%    100.0%      0.0%     
 flops    14 x    41 x    64          10654027776       0.0%    100.0%      0.0%     
 flops   164 x    64 x    96          12284854272       0.0%    100.0%      0.0%     
 flops   164 x    96 x    64          12284854272       0.0%    100.0%      0.0%     
 flops   160 x    68 x    96          12734300160       0.0%    100.0%      0.0%     
 flops   160 x    96 x    68          12734300160       0.0%    100.0%      0.0%     
 flops    17 x     6 x    96          12737433600       0.0%    100.0%      0.0%     
 flops  1936 x    64 x    68          14559215616       0.0%    100.0%      0.0%     
 flops  1936 x    68 x    64          14559215616       0.0%    100.0%      0.0%     
 flops  1938 x    64 x    68          14574256128       0.0%    100.0%      0.0%     
 flops  1938 x    68 x    64          14574256128       0.0%    100.0%      0.0%     
 flops   192 x    64 x   917          15820406784       0.0%    100.0%      0.0%     
 flops   192 x    64 x   920          15872163840       0.0%    100.0%      0.0%     
 flops  1936 x    68 x   917          15935200512       0.0%    100.0%      0.0%     
 flops  1938 x    68 x   917          15951662496       0.0%    100.0%      0.0%     
 flops  1936 x    68 x   920          15987333120       0.0%    100.0%      0.0%     
 flops  1938 x    68 x   920          16003848960       0.0%    100.0%      0.0%     
 flops   192 x    64 x   938          16182706176       0.0%    100.0%      0.0%     
 flops  1936 x    68 x   938          16300128768       0.0%    100.0%      0.0%     
 flops  1938 x    68 x   938          16316967744       0.0%    100.0%      0.0%     
 flops    41 x    41 x    64          17916609024       0.0%    100.0%      0.0%     
 flops    14 x    29 x    64          17975107584       0.0%    100.0%      0.0%     
 flops    17 x    17 x    68          18145477680       0.0%    100.0%      0.0%     
 flops   160 x    64 x   917          19775508480       0.0%    100.0%      0.0%     
 flops   160 x    64 x   920          19840204800       0.0%    100.0%      0.0%     
 flops   160 x    64 x   938          20228382720       0.0%    100.0%      0.0%     
 flops  1925 x    64 x    64          20437401600       0.0%    100.0%      0.0%     
 flops  1948 x    64 x    64          20681588736       0.0%    100.0%      0.0%     
 flops    17 x    31 x    64          21066508800       0.0%    100.0%      0.0%     
 flops  1925 x    64 x   917          22368931200       0.0%    100.0%      0.0%     
 flops  1925 x    64 x   920          22442112000       0.0%    100.0%      0.0%     
 flops  1948 x    64 x   917          22636196352       0.0%    100.0%      0.0%     
 flops  1948 x    64 x   920          22710251520       0.0%    100.0%      0.0%     
 flops  1925 x    64 x   938          22881196800       0.0%    100.0%      0.0%     
 flops  1948 x    64 x   938          23154582528       0.0%    100.0%      0.0%     
 flops    29 x    14 x    64          24067835904       0.0%    100.0%      0.0%     
 flops   164 x    96 x   917          27026528256       0.0%    100.0%      0.0%     
 flops   164 x    96 x   920          27114946560       0.0%    100.0%      0.0%     
 flops   164 x    96 x   938          27645456384       0.0%    100.0%      0.0%     
 flops    31 x    17 x    64          27987494400       0.0%    100.0%      0.0%     
 flops    29 x    41 x    68          28171909176       0.0%    100.0%      0.0%     
 flops    14 x    32 x    14          28516024320       0.0%    100.0%      0.0%     
 flops   192 x    96 x    64          28764536832       0.0%    100.0%      0.0%     
 flops   192 x    64 x    96          28764536832       0.0%    100.0%      0.0%     
 flops  1925 x    68 x    96          28952985600       0.0%    100.0%      0.0%     
 flops  1925 x    96 x    68          28952985600       0.0%    100.0%      0.0%     
 flops  1948 x    68 x    96          29298917376       0.0%    100.0%      0.0%     
 flops  1948 x    96 x    68          29298917376       0.0%    100.0%      0.0%     
 flops    31 x    31 x    96          29935226880       0.0%    100.0%      0.0%     
 flops    29 x     4 x    29          30121753872       0.0%    100.0%      0.0%     
 flops   160 x    64 x    96          35955671040       0.0%    100.0%      0.0%     
 flops   160 x    96 x    64          35955671040       0.0%    100.0%      0.0%     
 flops    41 x    29 x    68          38070457832       0.0%    100.0%      0.0%     
 flops  1936 x    64 x    64          41108373504       0.0%    100.0%      0.0%     
 flops  1938 x    64 x    64          41150840832       0.0%    100.0%      0.0%     
 flops    14 x    41 x    96          42616111104       0.0%    100.0%      0.0%     
 flops  1936 x    64 x   917          44993507328       0.0%    100.0%      0.0%     
 flops  1938 x    64 x   917          45039988224       0.0%    100.0%      0.0%     
 flops  1936 x    64 x   920          45140705280       0.0%    100.0%      0.0%     
 flops  1938 x    64 x   920          45187338240       0.0%    100.0%      0.0%     
 flops  1936 x    64 x   938          46023892992       0.0%    100.0%      0.0%     
 flops  1938 x    64 x   938          46071438336       0.0%    100.0%      0.0%     
 flops   164 x    96 x    96          49139417088       0.0%    100.0%      0.0%     
 flops    17 x    17 x    64          51234289920       0.0%    100.0%      0.0%     
 flops  1936 x    96 x    68          58236862464       0.0%    100.0%      0.0%     
 flops  1936 x    68 x    96          58236862464       0.0%    100.0%      0.0%     
 flops  1938 x    68 x    96          58297024512       0.0%    100.0%      0.0%     
 flops  1938 x    96 x    68          58297024512       0.0%    100.0%      0.0%     
 flops    29 x    32 x    32          60397387776       0.0%    100.0%      0.0%     
 flops   192 x    96 x   917          63281627136       0.0%    100.0%      0.0%     
 flops   192 x    96 x   920          63488655360       0.0%    100.0%      0.0%     
 flops   192 x    96 x   938          64730824704       0.0%    100.0%      0.0%     
 flops    41 x    41 x    96          71666436096       0.0%    100.0%      0.0%     
 flops    14 x    29 x    96          71900430336       0.0%    100.0%      0.0%     
 flops   160 x    96 x   917          79102033920       0.0%    100.0%      0.0%     
 flops   160 x    96 x   920          79360819200       0.0%    100.0%      0.0%     
 flops    29 x    41 x    64          79544214144       0.0%    100.0%      0.0%     
 flops   160 x    96 x   938          80913530880       0.0%    100.0%      0.0%     
 flops  1925 x    64 x    96          81749606400       0.0%    100.0%      0.0%     
 flops  1925 x    96 x    64          81749606400       0.0%    100.0%      0.0%     
 flops  1948 x    64 x    96          82726354944       0.0%    100.0%      0.0%     
 flops  1948 x    96 x    64          82726354944       0.0%    100.0%      0.0%     
 flops    17 x    31 x    96          84266035200       0.0%    100.0%      0.0%     
 flops  1925 x    96 x   917          89475724800       0.0%    100.0%      0.0%     
 flops  1925 x    96 x   920          89768448000       0.0%    100.0%      0.0%     
 flops  1948 x    96 x   917          90544785408       0.0%    100.0%      0.0%     
 flops  1948 x    96 x   920          90841006080       0.0%    100.0%      0.0%     
 flops  1925 x    96 x   938          91524787200       0.0%    100.0%      0.0%     
 flops  1948 x    96 x   938          92618330112       0.0%    100.0%      0.0%     
 flops    29 x    14 x    96          96271343616       0.0%    100.0%      0.0%     
 flops    41 x    29 x    64         107493057408       0.0%    100.0%      0.0%     
 flops    31 x    17 x    96         111949977600       0.0%    100.0%      0.0%     
 flops   192 x    96 x    96         115058147328       0.0%    100.0%      0.0%     
 flops    29 x    29 x    68         125560142784       0.0%    100.0%      0.0%     
 flops    41 x    32 x    14         133617942528       0.0%    100.0%      0.0%     
 flops    14 x    32 x    41         133617942528       0.0%    100.0%      0.0%     
 flops   160 x    96 x    96         143822684160       0.0%    100.0%      0.0%     
 flops  1936 x    96 x    64         164433494016       0.0%    100.0%      0.0%     
 flops  1936 x    64 x    96         164433494016       0.0%    100.0%      0.0%     
 flops  1938 x    64 x    96         164603363328       0.0%    100.0%      0.0%     
 flops  1938 x    96 x    64         164603363328       0.0%    100.0%      0.0%     
 flops  1936 x    96 x   917         179974029312       0.0%    100.0%      0.0%     
 flops  1938 x    96 x   917         180159952896       0.0%    100.0%      0.0%     
 flops  1936 x    96 x   920         180562821120       0.0%    100.0%      0.0%     
 flops  1938 x    96 x   920         180749352960       0.0%    100.0%      0.0%     
 flops  1936 x    96 x   938         184095571968       0.0%    100.0%      0.0%     
 flops  1938 x    96 x   938         184285753344       0.0%    100.0%      0.0%     
 flops    17 x    17 x    96         204937159680       0.0%    100.0%      0.0%     
 flops    29 x    41 x    96         318176856576       0.0%    100.0%      0.0%     
 flops  1925 x    96 x    96         326998425600       0.0%    100.0%      0.0%     
 flops  1948 x    96 x    96         330905419776       0.0%    100.0%      0.0%     
 flops    29 x    29 x    64         354522756096       0.0%    100.0%      0.0%     
 flops    41 x    32 x    41         405576187904       0.0%    100.0%      0.0%     
 flops    41 x    29 x    96         429972229632       0.0%    100.0%      0.0%     
 flops    14 x    32 x    29         443509047296       0.0%    100.0%      0.0%     
 flops    29 x    32 x    14         443509047296       0.0%    100.0%      0.0%     
 flops  1936 x    96 x    96         657733976064       0.0%    100.0%      0.0%     
 flops  1938 x    96 x    96         658413453312       0.0%    100.0%      0.0%     
 flops    29 x    29 x    96        1418091024384       0.0%    100.0%      0.0%     
 flops    41 x    32 x    29        2157298466816       0.0%    100.0%      0.0%     
 flops    29 x    32 x    41        2157298466816       0.0%    100.0%      0.0%     
 flops    29 x    32 x    29        7711168991232       0.0%    100.0%      0.0%     
 flops inhomo. stacks               9549170647272     100.0%      0.0%      0.0%
 flops total                        34.178463E+12      27.9%     72.1%      0.0%
 flops max/rank                    544.707814E+09      28.2%     71.8%      0.0%
 matmuls inhomo. stacks                    112347     100.0%      0.0%      0.0%
 matmuls total                          290625396       0.0%    100.0%      0.0%
 number of processed stacks               1686164       5.9%     94.1%      0.0%
 average stack size                                     1.1     183.1       0.0
 marketing flops                    49.416241E+12
 -------------------------------------------------------------------------------
 # multiplications                            698
 max memory usage/rank               4.378964E+09
 # max total images/rank                        2
 # max 3D layers                                1
 # MPI messages exchanged                 1055376
 MPI messages size (bytes):
  total size                         1.489621E+12
  min size                           0.000000E+00
  max size                          15.911264E+06
  average size                       1.411460E+06
 MPI breakdown and total messages size (bytes):
             size <=      128                6516                        0
       128 < size <=     8192                   0                        0
      8192 < size <=    32768               18225                595232640
     32768 < size <=   131072              427139              33388879744
    131072 < size <=  4194304              518752             478475362720
   4194304 < size <= 16777216               84744             977159729480
  16777216 < size                               0                        0
 -------------------------------------------------------------------------------

 *** WARNING in dbcsr_mm.F:301 :: Using a non-square number of MPI ranks ***
 *** might lead to poor performance. Used ranks: 72 Suggested: 64 144    ***

 -------------------------------------------------------------------------------
 -                                                                             -
 -                      DBCSR MESSAGE PASSING PERFORMANCE                      -
 -                                                                             -
 -------------------------------------------------------------------------------
 ROUTINE             CALLS      AVE VOLUME [Bytes]
 MP_Bcast              223                     12.
 MP_Allreduce         4163                     28.
 MP_Alltoall          4428                 532007.
 MP_ISend            32906                 660630.
 MP_IRecv            32906                 654984.
 -------------------------------------------------------------------------------

 -------------------------------------------------------------------------------
 -                                                                             -
 -                                DBM STATISTICS                               -
 -                                                                             -
 -------------------------------------------------------------------------------
    M  x    N  x    K                                          COUNT     PERCENT
 -------------------------------------------------------------------------------

 -------------------------------------------------------------------------------
 -                                                                             -
 -                                GRID STATISTICS                              -
 -                                                                             -
 -------------------------------------------------------------------------------
 LP    KERNEL             BACKEND                              COUNT     PERCENT
 6     collocate ortho    CPU                                8181453      16.36%
 6     integrate ortho    CPU                                7917690      15.83%
 1     collocate ortho    CPU                                5796540      11.59%
 1     integrate ortho    CPU                                5796540      11.59%
 2     collocate ortho    CPU                                4522830       9.04%
 2     integrate ortho    CPU                                4522830       9.04%
 0     collocate ortho    CPU                                2798400       5.59%
 0     integrate ortho    CPU                                2798400       5.59%
 3     collocate ortho    CPU                                1813350       3.63%
 3     integrate ortho    CPU                                1813350       3.63%
 5     collocate ortho    CPU                                1531051       3.06%
 5     integrate ortho    CPU                                1483740       2.97%
 4     collocate ortho    CPU                                 508482       1.02%
 4     integrate ortho    CPU                                 505410       1.01%
 0     collocate general  CPU                                  29448       0.06%
 -------------------------------------------------------------------------------

 MEMORY| Estimated peak process memory [MiB]                                4331

 -------------------------------------------------------------------------------
 -                                                                             -
 -                         MESSAGE PASSING PERFORMANCE                         -
 -                                                                             -
 -------------------------------------------------------------------------------

 ROUTINE             CALLS      AVE VOLUME [Bytes]
 MP_Group                4
 MP_Bcast             3770                3974229.
 MP_Allreduce         8511                   3290.
 MP_Sync               181
 MP_Alltoall          1267               14887850.
 MP_SendRecv          8662                 109696.
 MP_ISendRecv        12922                 497149.
 MP_Wait             21184
 MP_comm_split          24
 MP_ISend             7290                 546146.
 MP_IRecv             7290                 546062.
 -------------------------------------------------------------------------------


 -------------------------------------------------------------------------------
 -                                                                             -
 -                           R E F E R E N C E S                               -
 -                                                                             -
 -------------------------------------------------------------------------------
 
 CP2K version 2024.2 (Development Version), the CP2K developers group (2024).
 CP2K is freely available from https://www.cp2k.org/ .
 
 T. D. Kuehne, M. Iannuzzi, M. Del Ben, V. V. Rybkin, P. Seewald, F. Stein, T. 
 Laino, R. Z. Khaliullin, O. Schuett, F. Schiffmann, D. Golze, J. Wilhelm, S. 
 Chulkov, M. H. Bani-Hashemian, V. Weber, U. Borstnik, M. Taillefumier, A. S. 
 Jakobovits, A. Lazzaro, H. Pabst, T. Mueller, R. Schade, M. Guidon, S. 
 Andermatt, N. Holmberg, G. K. Schenter, A. Hehn, A. Bussy, F. Belleflamme, G. 
 Tabacchi, A. Gloess, M. Lass, I. Bethune, C. J. Mundy, C. Plessl, M. Watkins, 
 J. VandeVondele, M. Krack, J. Hutter.
 J. Chem. Phys. 152, 194103 (2020).
 CP2K: An electronic structure and molecular dynamics software package - 
 Quickstep: Efficient and accurate electronic structure calculations.
 https://doi.org/10.1063/5.0007045

 S. Lehtola, C. Steigemann, M. J. T. Oliveira, M. A. L. Marques.
 SoftwareX 7, 1-5 (2018).
 Recent developments in libxc - A comprehensive library of functionals for 
 density functional theory.
 https://doi.org/10.1016/j.softx.2017.11.002

 L. Goerigk, A. Hansen, C. Bauer, S. Ehrlich, A. Najibi, S. Grimme.
 Phys. Chem. Chem. Phys. 19, 32184-32215 (2017).
 A look at the density functional theory zoo with the advanced GMTKN55 database 
 for general main group thermochemistry, kinetics and noncovalent interactions.
 https://doi.org/10.1039/C7CP04913G

 O. Schuett, P. Messmer, J. Hutter, J. VandeVondele.
 Electronic Structure Calculations on Graphics Processing Units, 173-190 (2016).
 GPU-Accelerated Sparse Matrix-Matrix Multiplication for Linear Scaling Density 
 Functional Theory.
 https://doi.org/10.1002/9781118670712.ch8

 A. Heinecke, G. Henry, M. Hutchinson, H. Pabst.
 Proceedings of Intl. Supercomputing Conference, 981-991 (2016).
 LIBXSMM: Accelerating Small Matrix Multiplications by Runtime Code Generation.
 https://doi.org/10.1109/SC.2016.83

 J. Hutter, M. Iannuzzi, F. Schiffmann, J. VandeVondele.
 WIREs Comput Mol Sci. 4, 15-25 (2014).
 CP2K: atomistic simulations of condensed matter systems.
 https://doi.org/10.1002/wcms.1159

 U. Borstnik, J. VandeVondele, V. Weber, J. Hutter.
 Parallel Comput. 40, 47-58 (2014).
 Sparse matrix multiplication: The distributed block-compressed sparse row 
 library.
 https://doi.org/10.1016/j.parco.2014.03.012

 M. A. L. Marques, M. J. T. Oliveira, T. Burnus.
 Comput. Phys. Commun. 183, 2272-2281 (2012).
 LIBXC: A library of exchange and correlation functionals for density functional 
 theory.
 https://doi.org/10.1016/j.cpc.2012.05.007

 S. Grimme, S. Ehrlich, L. Goerigk.
 J. Comput. Chem. 32, 1456 (2011).
 Effect of the damping function in dispersion corrected density functional 
 theory.
 https://doi.org/10.1002/jcc.21759

 S. Grimme, J. Antony, S. Ehrlich, H. Krieg.
 J. Chem. Phys. 132, 154104 (2010).
 A consistent and accurate ab initio parametrization of density functional 
 dispersion correction (DFT-D) for the 94 elements H-Pu.
 https://doi.org/10.1063/1.3382344

 M. Guidon, J. Hutter, J. VandeVondele.
 J. Chem. Theory Comput. 6, 2348-2364 (2010).
 Auxiliary Density Matrix Methods for Hartree-Fock Exchange Calculations.
 https://doi.org/10.1021/ct1002225

 M. Guidon, J. Hutter, J. VandeVondele.
 J. Chem. Theory Comput. 5, 3010-3021 (2009).
 Robust Periodic Hartree-Fock Exchange for Large-Scale Simulations Using 
 Gaussian Basis Sets.
 https://doi.org/10.1021/ct900494g

 M. Guidon, F. Schiffmann, J. Hutter, J. VandeVondele.
 J. Chem. Phys. 128, 214104 (2008).
 Ab initio molecular dynamics using hybrid density functionals.
 https://doi.org/10.1063/1.2931945

 J. VandeVondele, J. Hutter.
 J. Chem. Phys. 127, 114105 (2007).
 Gaussian basis sets for accurate calculations on molecular systems in gas and 
 condensed phases.
 https://doi.org/10.1063/1.2770708

 J. VandeVondele, M. Krack, F. Mohamed, M. Parrinello, T. Chassaing, J. Hutter.
 Comput. Phys. Commun. 167, 103-128 (2005).
 QUICKSTEP: Fast and accurate density functional calculations using a mixed 
 Gaussian and plane waves approach.
 https://doi.org/10.1016/j.cpc.2004.12.014

 M. Krack.
 Theor. Chem. Acc. 114, 145-152 (2005).
 Pseudopotentials for H to Kr optimized for gradient-corrected 
 exchange-correlation functionals.
 https://doi.org/10.1007/s00214-005-0655-y

 M. Frigo, S. G. Johnson.
 Proc. IEEE 93, 216-231 (2005).
 The design and implementation of FFTW3.
 https://doi.org/10.1109/JPROC.2004.840301

 J. VandeVondele, J. Hutter.
 J. Chem. Phys. 118, 4365-4369 (2003).
 An efficient orbital transformation method for electronic structure 
 calculations.
 https://doi.org/10.1063/1.1543154

 C. Hartwigsen, S. Goedecker, J. Hutter.
 Phys. Rev. B 58, 3641-3662 (1998).
 Relativistic separable dual-space Gaussian pseudopotentials from H to Rn.
 https://doi.org/10.1103/PhysRevB.58.3641

 G. Lippert, J. Hutter, M. Parrinello.
 Mol. Phys. 92, 477-487 (1997).
 A hybrid Gaussian and plane wave density functional scheme.
 https://doi.org/10.1080/002689797170220

 S. Goedecker, M. Teter, J. Hutter.
 Phys. Rev. B 54, 1703-1710 (1996).
 Separable dual-space Gaussian pseudopotentials.
 https://doi.org/10.1103/PhysRevB.54.1703

 J. P. Perdew, K. Burke, M. Ernzerhof.
 Phys. Rev. Lett. 77, 3865-3868 (1996).
 Generalized gradient approximation made simple.
 https://doi.org/10.1103/PhysRevLett.77.3865


 -------------------------------------------------------------------------------
 -                                                                             -
 -                                T I M I N G                                  -
 -                                                                             -
 -------------------------------------------------------------------------------
 SUBROUTINE                       CALLS  ASD         SELF TIME        TOTAL TIME
                                MAXIMUM       AVERAGE  MAXIMUM  AVERAGE  MAXIMUM
 CP2K                                 1  1.0    0.117    0.135 3572.869 3572.893
 qs_energies                          1  2.0    0.004    0.006 3570.988 3571.011
 scf_env_do_scf                       1  3.0    0.000    0.000 3568.469 3568.492
 qs_ks_update_qs_env                 33  5.0    0.000    0.000 3503.225 3503.246
 rebuild_ks_matrix                   30  6.0    0.000    0.000 3503.096 3503.117
 qs_ks_build_kohn_sham_matrix        30  7.0    0.006    0.007 3503.096 3503.116
 hfx_ks_matrix                       30  8.0    0.002    0.003 3323.575 3323.601
 integrate_four_center               30  9.0    1.512    2.004 3323.391 3323.411
 integrate_four_center_main          30 10.0    0.034    0.038 3070.938 3257.005
 integrate_four_center_bin         1920 11.0 3070.904 3256.971 3070.904 3256.971
 scf_env_do_scf_inner_loop           30  4.0    0.001    0.007 2912.303 2912.540
 init_scf_loop                        3  4.0    0.000    0.000  656.040  656.062
 mp_sync                            181 11.0  195.359  375.931  195.359  375.931
 -------------------------------------------------------------------------------

 The number of warnings for this run is : 3
 
 -------------------------------------------------------------------------------
  **** **** ******  **  PROGRAM ENDED AT                 2024-09-13 01:17:02.566
 ***** ** ***  *** **   PROGRAM RAN ON                                  nid07228
 **    ****   ******    PROGRAM RAN BY                                  bsertcan
 ***** **    ** ** **   PROGRAM PROCESS ID                                  3729
  **** **  *******  **  PROGRAM STOPPED IN /scratch/snx3000/bsertcan/MFU_sp/cl/x
                                           e/rep41
