     409
 i =     180, E =     -952.6669591808
  N         2.8890411163        5.2482356447       15.9787868389
  C         1.5856801926        5.5066172832       16.2425902056
  N        13.7216179560        5.1083125742        5.1099626458
  C        12.4209696746        5.3694911836        5.3855238920
  N        19.5426357283       17.5377732083       15.9990852564
  C        20.8429609243       17.2866402144       16.2820398525
  N         8.7622002132       17.5996147508        5.2514838419
  C        10.0609337019       17.2947668435        5.4872547901
  N        19.6094020979        5.1753660927        6.7268168915
  C        20.9090668562        5.4615147045        6.4741541795
  N         8.7744828440        5.2501115282       17.6207911349
  C        10.0735456684        5.4706018998       17.3059997360
  N         2.8593558161       17.5410699777        6.7726774415
  C         1.5621566386       17.2613314588        6.5016991274
  N        13.6560421254       17.5916129525       17.5940334727
  C        12.3515095932       17.3326629542       17.3357179772
  N        15.9224917181        2.9644246982        5.1402389444
  C        16.1829473842        1.6650961904        5.4188950732
  N        15.7972956560       13.8256597773       16.0385402226
  C        16.0736838759       12.5239554177       16.2972196776
  N        15.8581086547       19.7269962513       17.5490754101
  C        16.1295322251       21.0245269674       17.2710706649
  N        15.8813944938        8.8529402000        6.6731892664
  C        16.1525046805       10.1558477791        6.4169461779
  N         6.5512510947       19.7311853918        5.2059346889
  C         6.2847698088       21.0325883596        5.4681346853
  N         6.5347159872        8.9725633701       16.0602990994
  C         6.2562931327       10.2727605454       16.3267945183
  N         6.6028105875        3.0812869844       17.5274562109
  C         6.3196558489        1.7812251856       17.2746667477
  N         6.5564929440       13.8291983482        6.8077939861
  C         6.3007970533       12.5310397731        6.5153691478
  N         5.0557709595       16.0085300807        3.0666621025
  C         5.3132773242       16.2914970381        1.7676020493
  N         5.0971119117        5.3030466078       13.8330369313
  C         5.3725700145        5.5549990826       12.5308567323
  N        17.3899309465       15.9951675781       19.7206565841
  C        17.1279396754       16.2579123747       21.0234571432
  N        17.4244120700        5.1142601040        8.8738698016
  C        17.1659742378        5.3975887818       10.1729077636
  N         5.0118546252        6.7459375404       19.7306049484
  C         5.2782500756        6.4678713476       21.0288719133
  N         5.0171401663       17.6100011199        8.9507164495
  C         5.2796846688       17.3465678714       10.2531307994
  N        17.4557294052        6.6815722098        2.9792383606
  C        17.1849987818        6.4199885332        1.6781303273
  N        17.3691005912       17.5344331657       13.8338640715
  C        17.0972126985       17.2658700264       12.5345592029
  N         5.0403329208        3.0297756139        6.7352890708
  C         5.2978190920        1.7268217636        6.4686384668
  N         4.9904968479       13.8930184003       17.6330423120
  C         5.2551783259       12.5941202962       17.3534456799
  N        17.4142176648       19.6798920354        6.7321154650
  C        17.1609107045       20.9800580553        6.4494799896
  N        17.4045466959        8.9006004909       17.5240823805
  C        17.1159918286       10.1989851155       17.2678698158
  N         5.0023386608       19.7929380716       16.0562129761
  C         5.2878014541       21.0935233252       16.3049700128
  N         5.0748352056        8.9192427445        5.1518141357
  C         5.3291722399       10.2154672022        5.4520239865
  N        17.4217424845        2.9997859279       15.9859005036
  C        17.1432033704        1.7018840313       16.2553880114
  N        17.4345926754       13.7900844046        5.1718276084
  C        17.1627728551       12.4886967066        5.4316428699
  N         2.8304038481       16.0690362744       17.6013190100
  C         1.5302465495       16.3186060140       17.3159103274
  N        13.6850530206       15.9205014389        6.6586157249
  C        12.3847081449       16.2108099426        6.4112920598
  N        19.5885389876       15.9770504274        5.2033576383
  C        20.8861044142       16.2472004521        5.4828660955
  N         8.7055596583       16.0829407565       16.0937107829
  C        10.0099749877       16.3429389231       16.3527056656
  N        19.5869392736        6.7401637834       17.5167051272
  C        20.8891935723        6.4859873392       17.2454889655
  N         8.7974594327        6.6416144227        6.6709156036
  C        10.0968246508        6.3637388874        6.4053327173
  N         2.8928057542        6.7625215075        5.2240591589
  C         1.5934713353        6.4868562129        5.4887522370
  N        13.6996393504        6.6133711294       15.9125884050
  C        12.3991207066        6.3672361903       16.2031954744
  N        15.9010554250        5.1672745362       19.6907334216
  C        16.1772357859        5.4269282728       20.9904227798
  N        15.8232481026       16.0040606999        8.9037345465
  C        16.0849701533       16.2729657477       10.2063154776
  N        15.8719622809       17.5139461077        3.0211085852
  C        16.1364729445       17.2516199718        1.7188503343
  N        15.9357038776        6.7200509299       13.7969516660
  C        16.1922450664        6.4378830719       12.4965614447
  N         6.5538800181        5.1713570560        3.0042832667
  C         6.2815764134        5.4470223450        1.7069984181
  N         6.5287016682       16.0910078206       13.8934151942
  C         6.2674936832       16.3529356607       12.5898005360
  N         6.5425477907       17.6152664685       19.7847475079
  C         6.2902259323       17.3279807301       21.0842250775
  N         6.6605392597        6.7576848459        8.8875967082
  C         6.3875785176        6.5162699881       10.1920977801
  N        19.5735909230       17.5080432716        6.7526235088
  C        20.8761294513       17.2452616566        6.4914373455
  N         8.7260007782       17.6317524734       17.6233981572
  C        10.0233904581       17.3519132753       17.3503035951
  N         2.8968011313        5.2298288359        6.7714945393
  C         1.5957013825        5.4879696089        6.4964718697
  N        13.7016289370        5.1850132966       17.5557003894
  C        12.4006581611        5.4378093479       17.2749733269
  N         2.8279886805       17.6080590699       16.0592604996
  C         1.5286210774       17.3210663323       16.3115808616
  N        13.6890706700       17.5346338264        5.1974806958
  C        12.3879222300       17.2635034256        5.4599911861
  N        19.6009413574        5.1968424848       15.9792437069
  C        20.8988070847        5.4817960394       16.2429110731
  N         8.7900615874        5.1318019777        5.1032735468
  C        10.0925438890        5.3806909018        5.3821823969
  N         6.5378701194       19.7959568914       17.6021431235
  C         6.2875786381       21.0952103047       17.3121918560
  N         6.6047461933        8.8982667713        6.6996418346
  C         6.3246894982       10.2031651707        6.4630237801
  N         6.5669757746        3.0152722325        5.1813278499
  C         6.2927233357        1.7181194040        5.4569178151
  N         6.4991386597       13.9035978509       16.0638652817
  C         6.2377952861       12.6011120314       16.3303414376
  N        15.8793485162        3.0129163222       17.5242839731
  C        16.1403115525        1.7106876644       17.2591878342
  N        15.9058111406       13.7838310521        6.7225829214
  C        16.1653221146       12.4838711941        6.4410813483
  N        15.8853777415       19.6800840901        5.1817848846
  C        16.1644909559       20.9797357881        5.4395194905
  N        15.8236888015        8.8908047279       16.0272922781
  C        16.0860449436       10.1943930819       16.2917831910
  N        17.4246740071        6.7228909279       19.6918940689
  C        17.1701047177        6.4403794679       20.9919134197
  N        17.3944082987       17.5112838480        8.9092505680
  C        17.1091831329       17.2550246298       10.2082268401
  N         5.0196413498        6.7180373975        3.0165662029
  C         5.2822085662        6.4543104658        1.7145279018
  N         4.9932645645       17.6338039833       13.8786350305
  C         5.2671199899       17.3589724961       12.5806334093
  N        17.4119617296       15.9732443001        3.0089390895
  C        17.1381381583       16.2465349136        1.7106066870
  N        17.4449886366        5.1508868802       13.8007538364
  C        17.1770458429        5.4162085996       12.4998087737
  N         5.0002685504       16.0764922414       19.7819250599
  C         5.2856431614       16.3256876197       21.0820924038
  N         5.1204198788        5.2190808489        8.9088560556
  C         5.3847165099        5.5123304003       10.2048289807
  N        17.3885295954       19.7126124724       15.9993426356
  C        17.1277863822       21.0153377451       16.2627224788
  N        17.4179114691        8.8630009110        5.1314916886
  C        17.1529975417       10.1616522901        5.4109266296
  N         5.0697082907        3.0801056141       15.9810328509
  C         5.3208814313        1.7799703321       16.2670480259
  N         5.0400867273       13.8443527235        5.2457753260
  C         5.3109776479       12.5416902295        5.4988812173
  N        17.4565765608        2.9666493564        6.6870316224
  C        17.1811774541        1.6661753768        6.4274138356
  N        17.3747609871       13.8258657917       17.5393512468
  C        17.1024108719       12.5257129428       17.2746201296
  N         5.0176203451       19.7415707798        6.7527079796
  C         5.2868626100       21.0400855684        6.4768580176
  N         5.0215563479        8.9641804113       17.6259146186
  C         5.2716410902       10.2662785428       17.3486941284
  N        19.6071317262        6.7120390702        5.1823601600
  C        20.9073202112        6.4619848839        5.4677317216
  N         8.7689615136        6.6839802857       15.9828667555
  C        10.0710010060        6.4025531376       16.2360800182
  N         2.8723660801        6.7836669577       17.5235352926
  C         1.5753224230        6.5075419465       17.2482260737
  N        13.7244569205        6.6156507210        6.6811930791
  C        12.4237039416        6.3512829802        6.4099232291
  N         2.8751104802       16.0061594312        5.2273022091
  C         1.5723355049       16.2617048137        5.4947912677
  N        13.6345581639       16.0457882637       16.0606712973
  C        12.3376141564       16.3249149457       16.3367506150
  N        19.5452822370       15.9992725570       17.5399988734
  C        20.8446789436       16.2841895844       17.2860637115
  N         8.7537270447       15.9867300899        6.7135984489
  C        10.0564499712       16.2424720925        6.4392137722
  N         6.5991304692       17.5447519456        3.0710184842
  C         6.3182771489       17.2928853232        1.7702457021
  N         6.6263356422        6.8538014560       13.8187254578
  C         6.3710132785        6.5636468893       12.5204707102
  N         6.5490603856        5.2028323977       19.7212967490
  C         6.2789569239        5.4620587543       21.0222509541
  N         6.5540598996       16.0674321692        8.9618099467
  C         6.2806425636       16.3406094661       10.2613492279
  N        15.8599385437       17.5456767345       19.7343900580
  C        16.1302239566       17.2668931490       21.0321664660
  N        15.9104829439        6.6782376962        8.8665342294
  C        16.1793959042        6.4172449880       10.1688139390
  N        15.9283207354        5.1284741065        2.9741564036
  C        16.1907972583        5.4075335238        1.6754609860
  N        15.7980960982       16.0269896327       13.8377691764
  C        16.0729066726       16.2838911279       12.5354667550
 Zn        14.4384926313       14.6734653396       14.6844436749
 Br        13.1233869159       13.3738823106       13.3805424596
 Zn        14.5415643134        3.7460613613        3.7516607090
 Br        13.2290961087        2.4360117232        2.4429668310
 Zn         3.6799749075       14.6333482221        3.8528037233
 Br         2.3817755324       13.3089639159        2.5445579869
 Zn         3.7158044335        3.8927547313       14.6047980403
 Br         2.4223133076        2.5913955050       13.2698828969
 Zn         7.9619454609        8.1679304383       14.7391304900
 Br         9.4478478549        9.6421243139       13.8749570600
 Zn         7.9614914646       18.9400754660        3.8548796958
 Br         9.2824145240       20.2373780963        2.5427157027
 Zn        18.8119638450        8.0759635721        3.7828962174
 Br        20.1207296338        9.3891868875        2.4740047670
 Zn        18.7531419365       18.9066254212       14.6166187338
 Br        20.0620422998       20.2104754989       13.2985484041
 Zn         7.9201223518       14.6933511176        8.1386291430
 Br         9.2963390771       13.5464123755        9.5198290480
 Zn         7.9595041381        3.8486830276       18.9414045964
 Br         9.2701733265        2.5288102393       20.2411940308
 Zn        18.7579741202       14.6168336656       18.9095953068
 Br        20.0679987477       13.3008076251       20.2144719786
 Zn        18.8165930889        3.7669898265        8.0815600222
 Br        20.1379125564        2.4617087208        9.3861163837
 Zn        14.5291845666        8.0136499166        8.0328946818
 Br        13.2262438952        9.3141923181        9.3506728369
 Zn        14.4961911403       18.9500026132       18.9533124037
 Br        13.2144775810       20.2729644155       20.2791032278
 Zn         3.6341279874        8.1310044420       18.9538169686
 Br         2.3060906023        9.4156294409       20.2719278825
 Zn         3.6343147517       18.9541065525        8.1279204817
 Br         2.3160729487       20.2795076851        9.4154356573
 Zn        14.5117140738       14.6034056516        8.0633977727
 Br        13.2432765289       13.2646294442        9.3750438425
 Zn        14.5046319854        3.8074290941       18.9129752101
 Br        13.1853924206        2.4990282274       20.2161186320
 Zn         3.6179176294       14.6944700086       18.9921967779
 Br         2.3074503277       13.3885237102       20.3068672713
 Zn         3.7056180103        3.8520770831        8.1358736373
 Br         2.4011118216        2.5556667505        9.4642548293
 Zn         8.0145240404        8.0624410846        7.9936069255
 Br         9.3990583200        9.4670532001        9.1041441153
 Zn         7.9190886045       18.9998770604       18.9880698401
 Br         9.2301309058       20.3078868042       20.2995670406
 Zn        18.7835352400        8.1132971804       18.8994252334
 Br        20.0830840316        9.4291794704       20.2143328704
 Zn        18.7725173926       18.8893966368        8.1234585134
 Br        20.0755391957       20.2032043074        9.4371968240
 Zn        14.5283663488        8.0407948160       14.6200691026
 Br        13.2752431890        9.3542968106       13.2702644301
 Zn        14.4952707497       18.8973107832        3.8194129333
 Br        13.1812542738       20.2033455521        2.5087900846
 Zn         3.6691180091        8.1213455194        3.8158575133
 Br         2.3488015917        9.4279756656        2.5127261469
 Zn         3.6170460911       18.9924491858       14.6800636305
 Br         2.3084195622       20.3161799650       13.3813451290
 Zn         7.8828435069       14.7264159549       14.7232178589
 Br         9.2117362081       13.4510251249       13.4063844451
 Zn         7.9349376927        3.7731186785        3.7660028239
 Br         9.2033960855        2.4392068718        2.4387114388
 Zn        18.8057669279       14.6120800693        3.8054615246
 Br        20.1295244046       13.3219398108        2.4886014217
 Zn        18.8154049982        3.7896342268       14.6213954556
 Br        20.1473895326        2.4762178057       13.3359654379
 Zn         5.8217174194        6.0245969524       16.7924288764
 Zn        16.5966942835       16.7768469961       16.7852283739
 Zn        16.6712061642        5.9020390880        5.9150661295
 Zn         5.8062033453       16.7960673385        6.0109024848
 Zn         5.8366873936        5.9554891132        5.9363950424
 Zn        16.6402639865       16.7336202685        5.9560150807
 Zn         5.7623683047       16.8551445035       16.8445776086
 Zn        16.6543936910        5.9431677476       16.7477487773
  N         3.6190718230        6.0200077565       16.7550659098
  N        14.4615278464        5.8636552088        5.8936664895
  N        18.8053613244       16.7595744556       16.7618821576
  N         8.0196174080       16.8069414234        5.9941336825
  N        18.8704087779        5.9331975364        5.9451303903
  N         8.0336991749        5.9858123418       16.8199429672
  N         3.6054895288       16.7805937352        6.0003544088
  N        14.3838454030       16.8128957844       16.8221788121
  N        16.6931491505        3.7036089215        5.9089440346
  N        16.5846529048       14.5643230932       16.7902166893
  N        16.6206629482       18.9814517817       16.7784658253
  N        16.6487736877        8.1189772295        5.8970196433
  N         5.7845037073       18.9981130690        5.9839225025
  N         5.7865487739        8.2302906914       16.8465591271
  N         5.8437451069        3.8192405571       16.7464486164
  N         5.7956501345       14.5756964973        6.0361409788
  N         5.8327126994       16.7692606893        3.8073434005
  N         5.8569999126        6.0875800771       14.5649338263
  N        16.6228294154       16.7748872212       18.9892447968
  N        16.6645839198        5.8906201783        8.1312470005
  N         5.7824693471        5.9804352703       18.9877232878
  N         5.7883337046       16.8355914830        8.2180239049
  N        16.6937018303        5.9008984888        3.7149127165
  N        16.5826609358       16.7834810465       14.5743313356
  N         5.8082292750        3.7605800182        5.9557694745
  N         5.7449275959       14.6373256713       16.8525459401
  N        16.6424352249       18.9413477625        5.9637886621
  N        16.6224441463        8.1571156344       16.7716362284
  N         5.7607111101       19.0566364994       16.8399453386
  N         5.8472149585        8.1702453162        5.9089219230
  N        16.6559893808        3.7444151280       16.7544929189
  N        16.6721392992       14.5252727406        5.9526451097
  N         3.5670150582       16.8487581195       16.8393913510
  N        14.4257918023       16.7231644579        5.9255933792
  N        18.8428112783       16.7410135759        5.9726573445
  N         7.9769998720       16.8627869094       16.8619395518
  N        18.8558824534        5.9597757273       16.7503572815
  N         8.0549195295        5.8957362984        5.8828864055
  N         3.6332848139        5.9996078920        5.9991296585
  N        14.4393965747        5.8997950428       16.7332295027
  N        16.6565218997        5.9514741852       18.9527329359
  N        16.6159858659       16.7528616775        8.1679619882
  N        16.6449771329       16.7410302981        3.7532402848
  N        16.6917510352        5.9394011573       14.5373238901
  N         5.7897790100        5.9417662709        3.7482973153
  N         5.7578378510       16.8653904881       14.6250551448
  N         5.7625538259       16.8559873124       19.0453737455
  N         5.8925229342        5.9749703973        8.1593743974
  C        11.1661253515       15.7947178160       15.8111413017
  H        11.1546309899       15.0243754496       15.0480503619
  C        11.2549507776        4.8483610275        4.8371596087
  H        11.2524619570        4.0978764420        4.0540290119
  C         0.4152490186       15.7185410469        4.9509125821
  H         0.4242998610       14.9545026227        4.1813282351
  C         0.4278772751        4.9590988210       15.7042346241
  H         0.4362070151        4.1932175873       14.9364801736
  C        11.2346791973        6.8739461479       15.6400850015
  H        11.2350131574        7.5815946517       14.8188398718
  C        11.2260892784       17.8417266018        4.9644463151
  H        11.2284858294       18.6475024439        4.2386616764
  C         0.4294371638        7.0105224142        4.9408577220
  H         0.4280698436        7.7743375103        4.1709736687
  C         0.3647340069       17.8401341207       15.7592225180
  H         0.3630878553       18.6064720393       14.9918539246
  C        11.2190660730       15.6600122726        6.9298772998
  H        11.2171055656       14.8535911271        7.6548832340
  C        11.2377269817        4.9547188252       17.8618137403
  H        11.2384275077        4.2451299258       18.6819110229
  C         0.3684816905       15.7646690856       17.8381400012
  H         0.3698233244       14.9984893304       18.6056590449
  C         0.4332887109        4.9413623160        7.0254664298
  H         0.4345878156        4.1772968215        7.7951045498
  C        11.2621225736        6.8792569664        6.9581460159
  H        11.2651061204        7.6283074799        7.7419652290
  C        11.1952195523       17.8815079856       17.8769818385
  H        11.2066989036       18.6522203910       18.6400377683
  C         0.4066141317        7.0343683659       17.7827927777
  H         0.3982008790        7.8004100264       18.5503957516
  C         0.3931749000       17.7864445694        7.0371718151
  H         0.3844032331       18.5498173971        7.8074191051
  C        15.5281013471       11.3574965729       15.7735755679
  H        14.7412299051       11.3550707150       15.0272186561
  C        15.6408764874        0.5018442475        4.8880925834
  H        14.8793412618        0.5007196889        4.1159868038
  C         4.7883292683       11.3851890200        4.9341694196
  H         4.0297384981       11.3948598029        4.1592806883
  C         4.7699644697        0.6156667695       15.7467979897
  H         4.0061039529        0.6143068066       14.9769827560
  C        15.6246704947       11.3171511308        6.9679816331
  H        14.8613387521       11.3131790974        7.7382770294
  C        15.5990448034        0.5527599864       17.8028492463
  H        14.8346795050        0.5603325638       18.5720877484
  C         4.7362569592       11.4254867975       17.8970507696
  H         3.9849028181       11.4183154249       18.6792068856
  C         4.7586073202        0.5678796300        7.0128476195
  H         3.9971686923        0.5742954556        7.7850710570
  C         6.7687265980       11.4422158841       15.7785771956
  H         7.5193837428       11.4510711537       14.9965593638
  C         6.8209098174        0.5508492199        4.9210394699
  H         7.5814949626        0.5440826132        4.1480352412
  C        17.6917577378       11.3277987282        4.8819000225
  H        18.4551230240       11.3315227580        4.1115513641
  C        17.6700745316        0.5334872372       15.7199065087
  H        18.4344984369        0.5261089069       14.9506392380
  C         6.8415319094       11.3608061303        7.0335121669
  H         7.6001422127       11.3510773326        7.8083840232
  C         6.8382251464        0.6193912766       17.8322216438
  H         7.6013291637        0.6214437236       18.6027873215
  C        17.6593994986       11.3640301987       17.7935705993
  H        18.4468448582       11.3664502472       18.5391741534
  C        17.7052954956        0.5036277810        6.9781619690
  H        18.4671626341        0.5044226477        7.7499713806
  C        15.5298094434       15.7546243387       11.3705237676
  H        14.7463941519       15.0046656430       11.3699923366
  C        15.6532770693        4.8739770977        0.5115244702
  H        14.8944810418        4.0991751058        0.5091456866
  C         4.7623428118       15.7718705188        0.6034049486
  H         3.9947703606       15.0057622516        0.6016292206
  C         4.8438789187        4.9961000297       11.3747537939
  H         4.0790380576        4.2275495256       11.3848316024
  C         6.8082613611       15.8083017463       11.4314176570
  H         7.5724210390       15.0390834521       11.4405587186
  C         6.8148885800        4.9149927525        0.5405336453
  H         7.5788928528        4.1453850642        0.5344112899
  C        17.6674387890       15.7131684322        0.5421452730
  H        18.4314180922       14.9434406121        0.5349591454
  C        17.6985104450        4.8606416653       11.3382605403
  H        18.4518927181        4.0805063200       11.3409650519
  C        15.6589100856        6.9737754077       11.3307042999
  H        14.9051482213        7.7533611982       11.3277797048
  C        15.5986085599       17.7978032134        0.5604086652
  H        14.8351698629       18.5679711748        0.5676154853
  C         4.7444703622        6.9996021299        0.5557198026
  H         3.9806849339        7.7695009437        0.5616355591
  C         4.7385191144       17.8911147317       11.4112652014
  H         3.9742698581       18.6606451838       11.4029174852
  C         6.9149708809        7.0786055336       11.3493702626
  H         7.6804642482        7.8473745969       11.3380482592
  C         6.8423064818       17.8461550504        0.6087609514
  H         7.6101009827       18.6120494765        0.6113733351
  C        17.7099021573        6.9718744924        0.5163579064
  H        18.4687123502        7.7466799393        0.5182395126
  C        17.6508943661       17.7856143109       11.3717322982
  H        18.4345808399       18.5351780810       11.3721660696
 Xe        11.1727350185       11.3317081494       11.3788271411
