     409
 i =     150, E =    -5183.7583403643
  N         2.9335270465        5.2013294167       16.0190661470
  C         1.6152384910        5.4701849572       16.2866386783
  N        13.7428797514        5.1898357305        5.1898234018
  C        12.4253139133        5.4602246287        5.4602170029
  N        19.6275214348       17.5666203169       16.0107554140
  C        20.9451520237       17.2994736423       16.2834765034
  N         8.7943288493       17.5774182879        5.2067704918
  C        10.1119724930       17.3041922991        5.4737970674
  N        19.6055315532        5.1916135890        6.7476119244
  C        20.9234521812        5.4664597123        6.4825110675
  N         8.7943426452        5.2067108870       17.5774201088
  C        10.1119858071        5.4737658842       17.3042210383
  N         2.9292908954       17.5747899795        6.7581134549
  C         1.6123314479       17.3026115461        6.4863571095
  N        13.7614342520       17.5667475325       17.5664674725
  C        12.4433599131       17.2979476224       17.2978618749
  N        15.8956025046        3.0327014742        5.1884099601
  C        16.1655832119        1.7151862104        5.4593754610
  N        15.9132468553       13.8581131256       16.0105364804
  C        16.1816700515       12.5404396493       16.2808149825
  N        15.9143969387       19.7188371723       17.5637276865
  C        16.1818791230       21.0367377696       17.2921157147
  N        15.8972519832        8.9004558243        6.7466215428
  C        16.1696306067       10.2180106871        6.4784152993
  N         6.6385946120       19.7330016708        5.2066210859
  C         6.3669859988       21.0503023298        5.4775583016
  N         6.6382715559        8.9125784845       16.0145817395
  C         6.3688792389       10.2300154348       16.2843154682
  N         6.6447313539        3.0508521727       17.5778366825
  C         6.3787248011        1.7325454714       17.3063606920
  N         6.6441803461       13.8678057139        6.7594175247
  C         6.3736599893       12.5502987759        6.4914472336
  N         5.0904621631       16.0202098135        3.0482472867
  C         5.3635173068       16.2895262957        1.7309458203
  N         5.0867234203        5.2053364455       13.8669292009
  C         5.3562093622        5.4769286665       12.5495858935
  N        17.4713806246       16.0090237900       19.7198796844
  C        17.1988083250       16.2770701597       21.0375081502
  N        17.4513185485        5.1897878718        8.8994631870
  C        17.1848239095        5.4617318639       10.2173377336
  N         5.0843560170        6.7642875916       19.7306486035
  C         5.3525320298        6.4950912433       21.0488089667
  N         5.0838366700       17.5720630774        8.9134126707
  C         5.3542106589       17.3016302378       10.2307244427
  N        17.4500273106        6.7455714814        3.0342484488
  C        17.1806865777        6.4762948056        1.7163187865
  N        17.4711559921       17.5648524517       13.8566162163
  C        17.1986786292       17.2958789163       12.5392662007
  N         5.0757338365        3.0476591771        6.7648458298
  C         5.3475496509        1.7298974342        6.4958176551
  N         5.0924654851       13.8685601506       17.5766211166
  C         5.3584263569       12.5508489892       17.3038523454
  N        17.4550440790       19.7183406260        6.7459634119
  C        17.1829146202       21.0355673443        6.4762535248
  N        17.4615483496        8.9005010268       17.5669029505
  C        17.1941418428       10.2186082338       17.2967532663
  N         5.0987975591       19.7319172651       16.0203527273
  C         5.3678972965       21.0498478924       16.2898545031
  N         5.0854548933        8.9118703854        5.2114448450
  C         5.3559336966       10.2294651704        5.4802405485
  N        17.4639718116        3.0365376811       16.0051220501
  C        17.1951639961        1.7185429456       16.2751116508
  N        17.4620052998       13.8554417017        5.1949270913
  C        17.1899670753       12.5380122321        5.4642133799
  N         2.9433494566       16.0225330051       17.5784332970
  C         1.6257474180       16.2890973061       17.3051236535
  N        13.7497459273       16.0083032325        6.7520727754
  C        12.4322560113       16.2818937586        6.4851927878
  N        19.6174403447       16.0109780576        5.1941643615
  C        20.9344294042       16.2824993277        5.4663418008
  N         8.8032621363       16.0152521513       16.0150321286
  C        10.1211206361       16.2842319420       16.2841577959
  N        19.6129040439        6.7484670691       17.5681071805
  C        20.9314038502        6.4816590854       17.2991016974
  N         8.7889048178        6.7485735686        6.7486043944
  C        10.1059965985        6.4772775977        6.4772854802
  N         2.9229169025        6.7630413897        5.2068951107
  C         1.6050037020        6.4898559441        5.4737811703
  N        13.7497643681        6.7520360847       16.0082779618
  C        12.4322756346        6.4851836675       16.2819084007
  N        15.9009746199        5.1885006858       19.7158044811
  C        16.1679644399        5.4592292720       21.0341175567
  N        15.9059052008       16.0113213580        8.9030450991
  C        16.1779271436       16.2810705464       10.2201662012
  N        15.9048738017       17.5578382632        3.0350877916
  C        16.1774177632       17.2894239575        1.7176251959
  N        15.9056469696        6.7512603537       13.8564404972
  C        16.1740813257        6.4804939446       12.5387006363
  N         6.6261785675        5.2042906716        3.0487751235
  C         6.3606195860        5.4770089814        1.7310072353
  N         6.6460176471       16.0187384404       13.8672646282
  C         6.3727243764       16.2861407364       12.5500860710
  N         6.6547076517       17.5765952434       19.7335957035
  C         6.3836360233       17.3061296699       21.0512275378
  N         6.6448278752        6.7642541575        8.9128806063
  C         6.3741362308        6.4940793670       10.2300445263
  N        19.6128896886       17.5681279388        6.7484666025
  C        20.9313858026       17.2991143022        6.4816640825
  N         8.8054789751       17.5716656540       17.5714297523
  C        10.1227209908       17.3003163017       17.3002389440
  N         2.9229126760        5.2068650420        6.7630436100
  C         1.6050119791        5.4737616423        6.4898602310
  N        13.7501416314        5.1930277680       17.5608288986
  C        12.4325093647        5.4674989654       17.2961937946
  N         2.9433644812       17.5783611282       16.0225917902
  C         1.6257670486       17.3050650478       16.2891532217
  N        13.7501104021       17.5608529653        5.1930637397
  C        12.4324807147       17.2961788592        5.4675080206
  N        19.6174524846        5.1941683686       16.0109573341
  C        20.9344345953        5.4663388394       16.2824859554
  N         8.7855675642        5.1927162813        5.1927356910
  C        10.1040302273        5.4612734093        5.4612760705
  N         6.6547589813       19.7335483333       17.5766071190
  C         6.3837044638       21.0511796362       17.3061282008
  N         6.6448596385        8.9128618274        6.7642400678
  C         6.3741322057       10.2300223109        6.4941020181
  N         6.6261911176        3.0487432922        5.2043199640
  C         6.3606080511        1.7309754140        5.4770190276
  N         6.6458508573       13.8672262136       16.0186143239
  C         6.3727116473       12.5500482455       16.2861852558
  N        15.9048657277        3.0350784807       17.5578211884
  C        16.1774017051        1.7176115665       17.2894042559
  N        15.9056398401       13.8564494450        6.7512645514
  C        16.1740765743       12.5387146261        6.4804924065
  N        15.9009533527       19.7158053737        5.1885179512
  C        16.1679514460       21.0341242197        5.4592336735
  N        15.9059465422        8.9030356874       16.0112882677
  C        16.1779438209       10.2201546314       16.2810613404
  N        17.4550652184        6.7459499908       19.7183354415
  C        17.1829276072        6.4762530986       21.0355716307
  N        17.4615096251       17.5669346410        8.9005102708
  C        17.1941270497       17.2967603651       10.2186127727
  N         5.0757133514        6.7648116937        3.0476831024
  C         5.3475583701        6.4958032078        1.7299196991
  N         5.0926462368       17.5767351745       13.8686113745
  C         5.3584379627       17.3038148989       12.5509014375
  N        17.4639808947       16.0051394694        3.0365492350
  C        17.1951772332       16.2751330253        1.7185502621
  N        17.4620062385        5.1949225231       13.8554292242
  C        17.1899708914        5.4642128225       12.5380056505
  N         5.0987339267       16.0203293633       19.7319776986
  C         5.3678294391       16.2898581164       21.0499140650
  N         5.0854266767        5.2114557521        8.9118883423
  C         5.3559399087        5.4802176508       10.2294771644
  N        17.4713249681       19.7198705697       16.0089764149
  C        17.1987904696       21.0374988000       16.2770442153
  N        17.4513154992        8.8994743732        5.1897852933
  C        17.1848199621       10.2173412783        5.4617309779
  N         5.0904857770        3.0481796813       16.0202054931
  C         5.3635624459        1.7308753913       16.2895138770
  N         5.0867149960       13.8669200136        5.2053806146
  C         5.3562136645       12.5495829310        5.4769485834
  N        17.4500276605        3.0342515005        6.7455647904
  C        17.1806864902        1.7163141612        6.4762877032
  N        17.4712327336       13.8566115735       17.5647840953
  C        17.1986885824       12.5392576737       17.2958700582
  N         5.0843320317       19.7306336799        6.7643194934
  C         5.3525179692       21.0487880973        6.4951242722
  N         5.0837701719        8.9133552589       17.5720153029
  C         5.3542021040       10.2306762970       17.3016518393
  N        19.6055358677        6.7476145263        5.1916201229
  C        20.9234429567        6.4825083772        5.4664701331
  N         8.7940952588        6.7628732382       16.0219619654
  C        10.1117476040        6.4903196582       16.2888050915
  N         2.9292924422        6.7580535165       17.5748348089
  C         1.6123322478        6.4863449315       17.3026093531
  N        13.7442952597        6.7460139414        6.7460021887
  C        12.4265259336        6.4762265200        6.4762198897
  N         2.9335291990       16.0190388315        5.2013879866
  C         1.6152434322       16.2866476437        5.4701949946
  N        13.7588517362       16.0113005800       16.0110151872
  C        12.4416908446       16.2820439217       16.2819522940
  N        19.6275091175       16.0107444644       17.5666291319
  C        20.9451447696       16.2834516736       17.2994957329
  N         8.7940903800       16.0219439607        6.7629270704
  C        10.1117377621       16.2887736540        6.4903446519
  N         6.6447114992       17.5778355918        3.0509027628
  C         6.3786790654       17.3063680219        1.7325945922
  N         6.6442028159        6.7593700440       13.8678235832
  C         6.3736622981        6.4914267637       12.5503150788
  N         6.6386109087        5.2065828023       19.7330199067
  C         6.3669988405        5.4775230705       21.0503182788
  N         6.6383257908       16.0146184127        8.9126250546
  C         6.3688805751       16.2842876274       10.2300614446
  N        15.9144382579       17.5637832271       19.7188381958
  C        16.1818999312       17.2921377466       21.0367440436
  N        15.8972548269        6.7466255482        8.9004459364
  C        16.1696329864        6.4784186129       10.2179968931
  N        15.8956057621        5.1884153202        3.0326994085
  C        16.1655855780        5.4593805871        1.7151778576
  N        15.9131846511       16.0106105176       13.8581149623
  C        16.1816589614       16.2808215338       12.5404451922
 Zn        14.6178556686       14.7188190311       14.7188080636
 Cl        13.3827338251       13.4877815344       13.4877675086
 Zn        14.6044731228        3.8967529601        3.8967495895
 Cl        13.3689291710        2.6657117803        2.6656880249
 Zn         3.7962130338       14.7261274052        3.9073300208
 Cl         2.5652169077       13.4929529504        2.6750306804
 Zn         3.7962210237        3.9072855184       14.7261454750
 Cl         2.5652152079        2.6750239718       13.4929455725
 Zn         7.9358635862        8.0539056868       14.7251699720
 Cl         9.1756455734        9.2807777659       13.4937192288
 Zn         7.9348359716       18.8730825084        3.9144087534
 Cl         9.1694256539       20.1046668174        2.6838547400
 Zn        18.7405598911        8.0379942376        3.8972684663
 Cl        19.9741078534        9.2698085161        2.6647158975
 Zn        18.7656914502       18.8581816842       14.7175961541
 Cl        19.9966985570       20.0888749266       13.4823148750
 Zn         7.9358488627       14.7251514788        8.0539375182
 Cl         9.1756267972       13.4936808648        9.2807895830
 Zn         7.9348572057        3.9143403058       18.8730998781
 Cl         9.1694587148        2.6838164230       20.1047053559
 Zn        18.7656840968       14.7175936847       18.8581871452
 Cl        19.9967031255       13.4823105501       20.0888707550
 Zn        18.7405631122        3.8972631106        8.0379964454
 Cl        19.9741208141        2.6647034105        9.2697925210
 Zn        14.6061278038        8.0401255567        8.0401196113
 Cl        13.3801259268        9.2756827757        9.2756703173
 Zn        14.6221195872       18.8587365269       18.8587163373
 Cl        13.3906545142       20.0914663541       20.0914734021
 Zn         3.7904313338        8.0542360730       18.8672875497
 Cl         2.5585770678        9.2901722566       20.0962410708
 Zn         3.7904327286       18.8672595263        8.0542744981
 Cl         2.5585536073       20.0962243253        9.2901679743
 Zn        14.6125396558       14.7176121759        8.0464715389
 Cl        13.3800984013       13.4866619422        9.2800480766
 Zn        14.6106920667        3.8964949171       18.8475872314
 Cl        13.3771053120        2.6637458038       20.0790436176
 Zn         3.8018726190       14.7285564009       18.8725903023
 Cl         2.5698693974       13.4966549663       20.1052730339
 Zn         3.7884738028        3.9163929496        8.0569457475
 Cl         2.5594963967        2.6922669759        9.3010281853
 Zn         7.9442000732        8.0482001963        8.0482153621
 Cl         9.2483258371        9.2433878680        9.2434091350
 Zn         7.9476995513       18.8684479564       18.8684994773
 Cl         9.1906454174       20.0952319982       20.0952409729
 Zn        18.7505838140        8.0386626809       18.8629500286
 Cl        19.9824014010        9.2706858072       20.0962103356
 Zn        18.7505517268       18.8629612048        8.0386721064
 Cl        19.9824052118       20.0961946451        9.2706876252
 Zn        14.6125471476        8.0464667743       14.7176058820
 Cl        13.3801041238        9.2800453722       13.4866592856
 Zn        14.6106766079       18.8475820396        3.8965050913
 Cl        13.3771179180       20.0790692262        2.6637577107
 Zn         3.7884743358        8.0569375094        3.9164083545
 Cl         2.5594671465        9.3010368795        2.6923303469
 Zn         3.8018992196       18.8725426109       14.7286337220
 Cl         2.5698886683       20.1051903948       13.4967065815
 Zn         7.9385840729       14.7226385045       14.7226636462
 Cl         9.1448318302       13.4767542021       13.4768154549
 Zn         7.9114318589        3.9034333167        3.9034541184
 Cl         9.1320509185        2.6649107787        2.6648898547
 Zn        18.7590051732       14.7164783317        3.9020493858
 Cl        19.9899840002       13.4806094491        2.6720795954
 Zn        18.7590031403        3.9020478632       14.7164727456
 Cl        19.9899892223        2.6720850782       13.4806027809
 Zn         5.8586265726        5.9855528091       16.8003400274
 Zn        16.6981699740       16.7834432982       16.7834878418
 Zn        16.6697990967        5.9627053092        5.9626894565
 Zn         5.8587530696       16.8004199467        5.9855911470
 Zn         5.8532623573        5.9850559451        5.9850819368
 Zn        16.6786497300       16.7811274036        5.9651064331
 Zn         5.8780256594       16.8013525184       16.8014289789
 Zn        16.6786761676        5.9650875724       16.7811230518
  N         3.6776816049        5.9803380536       16.7982007070
  N        14.4898773789        5.9676497079        5.9676314278
  N        18.8810834468       16.7872119513       16.7872220446
  N         8.0475150810       16.8011945490        5.9862032098
  N        18.8590103486        5.9669712640        5.9669625663
  N         8.0475213714        5.9861300694       16.8011857432
  N         3.6776852150       16.7982618287        5.9802920783
  N        14.5070093273       16.7881917345       16.7884641724
  N        16.6726437741        3.7799054256        5.9664127926
  N        16.6932658646       14.6036470825       16.7873333164
  N        16.6943882142       18.9726955992       16.7874270699
  N        16.6727664804        8.1531735381        5.9671311739
  N         5.8622425328       18.9853173251        5.9851653578
  N         5.8610075331        8.1665263404       16.7937842257
  N         5.8656593046        3.7961800036       16.7997477992
  N         5.8660278864       14.6140706102        5.9812507704
  N         5.8657391928       16.7996538021        3.7962414980
  N         5.8658061902        5.9814427074       14.6140806472
  N        16.6942415016       16.7872718372       18.9726940226
  N        16.6727681814        5.9671417350        8.1531620287
  N         5.8621813217        5.9850562320       18.9853312585
  N         5.8613565230       16.7941137073        8.1665815542
  N        16.6726478699        5.9664261252        3.7799022710
  N        16.6934005421       16.7871925105       14.6036434222
  N         5.8495673936        3.7950013070        5.9834592886
  N         5.8714437859       14.6145906440       16.7993021559
  N        16.6794714010       18.9704077181        5.9669275758
  N        16.6824983226        8.1549885182       16.7891738017
  N         5.8771288830       18.9862601690       16.7987653872
  N         5.8653446876        8.1659112328        5.9876100307
  N        16.6833865754        3.7822141657       16.7811435763
  N        16.6845772437       14.6021163259        5.9733511518
  N         3.6900465741       16.8023154027       16.8023855117
  N        14.4963723634       16.7822221447        5.9703369342
  N        18.8684277918       16.7889598975        5.9698560591
  N         8.0581101722       16.7938912810       16.7942139305
  N        18.8684452290        5.9698578775       16.7889381308
  N         8.0407793605        5.9716862808        5.9717008947
  N         3.6692728402        5.9865802044        5.9866043655
  N        14.4963969923        5.9703224910       16.7822129375
  N        16.6794876396        5.9669098533       18.9704040109
  N        16.6824944531       16.7891692530        8.1549973729
  N        16.6833335387       16.7811043876        3.7822264057
  N        16.6845930902        5.9733509072       14.6021028459
  N         5.8495456671        5.9834266707        3.7950303475
  N         5.8715500093       16.7993470510       14.6146321883
  N         5.8772709011       16.7985426859       18.9863064246
  N         5.8652297665        5.9877042299        8.1659341848
  C        11.2803725121       15.7326857791       15.7326197470
  H        11.2798858299       14.9571289573       14.9570958415
  C        11.2641552838        4.9103955670        4.9103905261
  H        11.2640354910        4.1348917539        4.1348827452
  C         0.4566485407       15.7337600151        4.9183236108
  H         0.4596023575       14.9577001551        4.1432702644
  C         0.4566663214        4.9183173287       15.7337411327
  H         0.4596248633        4.1432828308       14.9576648915
  C        11.2716136473        7.0388841590       15.7355983474
  H        11.2710486936        7.8149735375       14.9605745731
  C        11.2725874331       17.8501782046        4.9196741848
  H        11.2733671165       18.6247980839        4.1431578487
  C         0.4442088179        7.0368196124        4.9203543190
  H         0.4440595099        7.8128901418        4.1453340022
  C         0.4654929485       17.8525211137       15.7356736324
  H         0.4655452277       18.6278212604       14.9598549842
  C        11.2716055622       15.7355643906        7.0389030010
  H        11.2710487118       14.9605557283        7.8150061097
  C        11.2726261787        4.9196593383       17.8502025470
  H        11.2734369717        4.1431291558       18.6248071183
  C         0.4654690966       15.7356335958       17.8525560301
  H         0.4654779649       14.9598086139       18.6278547738
  C         0.4441909842        4.9203333058        7.0368173938
  H         0.4440553664        4.1453047361        7.8128808953
  C        11.2668664265        7.0271175608        7.0271178349
  H        11.2658004407        7.8027280288        7.8027268822
  C        11.2841747999       17.8495471546       17.8494906361
  H        11.2856437703       18.6250911435       18.6250813566
  C         0.4499326135        7.0345402515       17.8510504526
  H         0.4468712556        7.8102695665       18.6264248901
  C         0.4499218592       17.8510598415        7.0345472393
  H         0.4468558729       18.6264463207        7.8102586406
  C        15.6290271228       11.3810857384       15.7307377717
  H        14.8531444516       11.3822514376       14.9554863321
  C        15.6165238024        0.5541006900        4.9088112831
  H        14.8413466306        0.5534229121        4.1329093846
  C         4.8045688071       11.3888412748        4.9290204385
  H         4.0279866330       11.3872859561        4.1544544282
  C         4.8160257750        0.5693006681       15.7387842959
  H         4.0408286815        0.5675103452       14.9628411829
  C        15.6217746953       11.3788777883        7.0302552134
  H        14.8464598186       11.3795275959        7.8060801111
  C        15.6283485494        0.5567446561       17.8402324476
  H        14.8516619457        0.5561657663       18.6146870886
  C         4.8062633965       11.3912431992       17.8537958862
  H         4.0319496108       11.3917778963       18.6305848660
  C         4.8011972834        0.5681064589        7.0473795904
  H         4.0274683478        0.5657625907        7.8246994953
  C         6.9198727179       11.3895496676       15.7331779244
  H         7.6942718241       11.3892534570       14.9565375033
  C         6.9133611073        0.5719438430        4.9260325540
  H         7.6873532903        0.5745720936        4.1488580946
  C        17.7376642867       11.3770313828        4.9123779041
  H        18.5127214466       11.3760442070        4.1363209727
  C        17.7477111249        0.5584058827       15.7260961864
  H        18.5237054578        0.5590698834       14.9509997350
  C         6.9256440529       11.3908435106        7.0420566315
  H         7.7044603789       11.3930108070        7.8140459422
  C         6.9316149190        0.5729526885       17.8564220652
  H         7.7070658520        0.5748460378       18.6320431685
  C        17.7472478248       11.3780430024       17.8464213884
  H        18.5233385004       11.3768062771       18.6214410268
  C        17.7313613021        0.5564692081        7.0275487934
  H        18.5060965651        0.5573562444        7.8039678624
  C        15.6290164882       15.7307448582       11.3810893547
  H        14.8531355138       14.9554908913       11.3822569934
  C        15.6165325164        4.9088116634        0.5541064861
  H        14.8413582183        4.1329056672        0.5534287164
  C         4.8159716694       15.7387865164        0.5693639512
  H         4.0408291252       14.9627884721        0.5676088462
  C         4.8045657670        4.9290023714       11.3888665919
  H         4.0279145555        4.1545057424       11.3873149266
  C         6.9198731043       15.7331392873       11.3895927736
  H         7.6944019822       14.9566241100       11.3892820836
  C         6.9133796031        4.9260121923        0.5719823429
  H         7.6873582480        4.1488288946        0.5746342663
  C        17.7477242269       15.7261151201        0.5584148428
  H        18.5236889947       14.9509900762        0.5590831989
  C        17.7376661994        4.9123795761       11.3770133015
  H        18.5127254822        4.1363225073       11.3760392999
  C        15.6217796529        7.0302570750       11.3788733538
  H        14.8464654367        7.8060837768       11.3795210321
  C        15.6283631957       17.8402543464        0.5567469059
  H        14.8516532846       18.6146829775        0.5561781076
  C         4.8012161336        7.0473511900        0.5681217722
  H         4.0274694504        7.8246564205        0.5657726472
  C         4.8062728585       17.8537680787       11.3913063059
  H         4.0320927416       18.6306861689       11.3918768108
  C         6.9256450601        7.0420393468       11.3908618977
  H         7.7043921132        7.8141006591       11.3930299171
  C         6.9315623356       17.8564211486        0.5730082335
  H         7.7070681288       18.6319871445        0.5749085561
  C        17.7313643610        7.0275535923        0.5564599094
  H        18.5060996487        7.8039748298        0.5573652376
  C        17.7472425374       17.8464263257       11.3780455461
  H        18.5233391800       18.6214364513       11.3768206919
 Xe         6.4668129493       11.1830836652       11.1830797168
