 DBCSR| CPU Multiplication driver                                           XSMM (U)
 DBCSR| Multrec recursion limit                                              512 (U)
 DBCSR| Multiplication stack size                                           1000 (D)
 DBCSR| Maximum elements for images                                    UNLIMITED (U)
 DBCSR| Multiplicative factor virtual images                                   1 (U)
 DBCSR| Use multiplication densification                                       T (D)
 DBCSR| Multiplication size stacks                                             3 (U)
 DBCSR| Use memory pool for CPU allocation                                     F (U)
 DBCSR| Number of 3D layers                                               SINGLE (U)
 DBCSR| Use MPI memory allocation                                              F (U)
 DBCSR| Use RMA algorithm                                                      F (U)
 DBCSR| Use Communication thread                                               T (U)
 DBCSR| Communication thread load                                             87 (D)
 DBCSR| MPI: My process id                                                     0
 DBCSR| MPI: Number of processes                                             144
 DBCSR| OMP: Current number of threads                                         1
 DBCSR| OMP: Max number of threads                                             1
 DBCSR| Split modifier for TAS multiplication algorithm                  1.0E+00 (U)


  **** **** ******  **  PROGRAM STARTED AT               2024-09-13 00:30:32.023
 ***** ** ***  *** **   PROGRAM STARTED ON                              nid04452
 **    ****   ******    PROGRAM STARTED BY                              bsertcan
 ***** **    ** ** **   PROGRAM PROCESS ID                                 15792
  **** **  *******  **  PROGRAM STARTED IN /scratch/snx3000/bsertcan/MFU_sp/cl/k
                                           r/rep41

 CP2K| version string:                 CP2K version 2024.2 (Development Version)
 CP2K| source code revision number:                                  git:42d1e6b
 CP2K| cp2kflags: omp libint fftw3 libxc parallel scalapack xsmm                
 CP2K| is freely available from                            https://www.cp2k.org/
 CP2K| Program compiled at                         Tue Sep  3 22:59:39 CEST 2024
 CP2K| Program compiled on                                              daint106
 CP2K| Program compiled for                                                local
 CP2K| Data directory path                             /users/bsertcan/cp2k/data
 CP2K| Input file name                                                 input.inp

 GLOBAL| Force Environment number                                              1
 GLOBAL| Basis set file name                                    BASIS_MOLOPT_UZH
 GLOBAL| Potential file name                                       POTENTIAL_UZH
 GLOBAL| MM Potential file name                                     MM_POTENTIAL
 GLOBAL| Coordinate file name                                         rep_41.xyz
 GLOBAL| Method name                                                        CP2K
 GLOBAL| Project name                                                 Replica_41
 GLOBAL| Run type                                                         ENERGY
 GLOBAL| FFT library                                                       FFTW3
 GLOBAL| Diagonalization library                                       ScaLAPACK
 GLOBAL| DGEMM library                                                      BLAS
 GLOBAL| Orthonormality check for eigenvectors                          DISABLED
 GLOBAL| Matrix multiplication library                                 ScaLAPACK
 GLOBAL| All-to-all communication in single precision                          F
 GLOBAL| FFTs using library dependent lengths                                  F
 GLOBAL| Grid backend                                                       AUTO
 GLOBAL| Global print level                                                  LOW
 GLOBAL| MPI I/O enabled                                                       T
 GLOBAL| Total number of message passing processes                           144
 GLOBAL| Number of threads for this process                                    1
 GLOBAL| This output is from process                                           0
 GLOBAL| Stack size for threads created by OpenMP (OMP_STACKSIZE)             5M
 GLOBAL| CPU model name                Intel(R) Xeon(R) CPU E5-2690 v3 @ 2.60GHz
 GLOBAL| CPUID                                                              1002

 MEMORY| system memory details [Kb]
 MEMORY|                        rank 0           min           max       average
 MEMORY| MemTotal             65740148      65740148      65740148      65740148
 MEMORY| MemFree              60801656      60801656      61221972      60908601
 MEMORY| Buffers                  8212          7616          8212          7694
 MEMORY| Cached                1861292       1587240       1867524       1827319
 MEMORY| Slab                   221360        214192        222056        219045
 MEMORY| SReclaimable            51860         50216         51860         51155
 MEMORY| MemLikelyFree        62723020      62723020      62867044      62794770


 *******************************************************************************
 *******************************************************************************
 **                                                                           **
 **     #####                         ##              ##                      **
 **    ##   ##            ##          ##              ##                      **
 **   ##     ##                       ##            ######                    **
 **   ##     ##  ##   ##  ##   #####  ##  ##   ####   ##    #####    #####    **
 **   ##     ##  ##   ##  ##  ##      ## ##   ##      ##   ##   ##  ##   ##   **
 **   ##  ## ##  ##   ##  ##  ##      ####     ###    ##   ######   ######    **
 **    ##  ###   ##   ##  ##  ##      ## ##      ##   ##   ##       ##        **
 **     #######   #####   ##   #####  ##  ##  ####    ##    #####   ##        **
 **           ##                                                    ##        **
 **                                                                           **
 **                                                ... make the atoms dance   **
 **                                                                           **
 **            Copyright (C) by CP2K developers group (2000-2024)             **
 **                      J. Chem. Phys. 152, 194103 (2020)                    **
 **                                                                           **
 *******************************************************************************


 TOTAL NUMBERS AND MAXIMUM NUMBERS

  Total number of            - Atomic kinds:                                   6
                             - Atoms:                                        409
                             - Shell sets:                                   409
                             - Shells:                                      3617
                             - Primitive Cartesian functions:               2052
                             - Cartesian basis functions:                  13634
                             - Spherical basis functions:                  11621

  Maximum angular momentum of- Orbital basis functions:                        3
                             - Local part of the GTH pseudopotential:          2
                             - Non-local part of the GTH pseudopotential:      4

  AUX_FIT ADMM-Basis: 
  Total number of            - Shell sets:                                  2799
                             - Shells:                                      2799
                             - Primitive Cartesian functions:               3609
                             - Cartesian basis functions:                   7546
                             - Spherical basis functions:                   6985
                               Maximum angular momentum                        3


 SCF PARAMETERS         Density guess:                                   RESTART
                        --------------------------------------------------------
                        max_scf:                                              10
                        max_scf_history:                                       0
                        max_diis:                                              4
                        --------------------------------------------------------
                        eps_scf:                                        1.00E-06
                        eps_scf_history:                                0.00E+00
                        eps_diis:                                       1.00E-01
                        eps_eigval:                                     1.00E-05
                        --------------------------------------------------------
                        level_shift [a.u.]:                             0.000000
                        --------------------------------------------------------
                        Outer loop SCF in use 
                        No variables optimised in outer loop
                        eps_scf                                         1.00E-06
                        max_scf                                               10
                        No outer loop optimization
                        step_size                                       5.00E-01

  HFX_INFO| Replica ID:                                                        1
  HFX_INFO| FRACTION:                                               0.2500000000
  HFX_INFO| Interaction Potential:                                     TRUNCATED
  HFX_INFO| Cutoff Radius [angstrom]:                               6.0000000000
  HFX_INFO| EPS_SCHWARZ:                                                 1.0E-08
  HFX_INFO| EPS_SCHWARZ_FORCES                                           1.0E-06
  HFX_INFO| EPS_STORAGE_SCALING:                                         1.0E+00
  HFX_INFO| NBINS:                                                            64
  HFX_INFO| BLOCK_SIZE:                                                        5
  HFX_INFO| NUMBER_OF_SHELLS:                                               AUTO
  HFX_INFO| Number of periodic shells considered:                             -1
  HFX_INFO| Number of periodic cells considered:                              27


 Number of electrons:                                                       2056
 Number of occupied orbitals:                                               1028
 Number of molecular orbitals:                                              1028

 Number of orbital functions:                                              11621
 Number of independent orbital functions:                                  11621

 Extrapolation method: initial_guess

 *** WARNING in qs_initial_guess.F:306 :: User requested to restart the   ***
 *** wavefunction from the file named: Replica_41-RESTART.wfn. This file  ***
 *** does not exist. Please check the existence of the file or change     ***
 *** properly the value of the keyword WFN_RESTART_FILE_NAME. Calculation ***
 *** continues using ATOMIC GUESS.                                        ***



 SCF WAVEFUNCTION OPTIMIZATION

  ----------------------------------- OT ---------------------------------------
  Minimizer      : DIIS                : direct inversion
                                         in the iterative subspace
                                         using   7 DIIS vectors
                                         safer DIIS on
  Preconditioner : FULL_SINGLE_INVERSE : inversion of 
                                         H + eS - 2*(Sc)(c^T*H*c+const)(Sc)^T
  Precond_solver : DEFAULT
  stepsize       :    0.08000000                  energy_gap     :    0.08000000
  eps_taylor     :   0.10000E-15                  max_taylor     :             4
  ----------------------------------- OT ---------------------------------------

  Step     Update method      Time    Convergence         Total energy    Change
  ------------------------------------------------------------------------------

  HFX_MEM_INFO| Est. max. program size before HFX [MiB]:                     454

 *** WARNING in hfx_energy_potential.F:587 :: The Kohn Sham matrix is not ***
 *** 100% occupied. This may result in incorrect Hartree-Fock results.    ***
 *** Setting MIN_PAIR_LIST_RADIUS to -1 in the QS section ensures a fully ***
 *** occupied KS matrix. For more information see FAQ:                    ***
 *** https://www.cp2k.org/faq:hfx_eps_warning                             ***

  HFX_MEM_INFO| Number of cart. primitive ERI's calculated:         566114476211
  HFX_MEM_INFO| Number of sph. ERI's calculated:                    305681933311
  HFX_MEM_INFO| Number of sph. ERI's stored in-core:                298352470452
  HFX_MEM_INFO| Number of sph. ERI's stored on disk:                           0
  HFX_MEM_INFO| Number of sph. ERI's calculated on the fly:                    0
  HFX_MEM_INFO| Total memory consumption ERI's RAM [MiB]:                 265385
  HFX_MEM_INFO| Whereof max-vals [MiB]:                                     4811
  HFX_MEM_INFO| Total compression factor ERI's RAM:                         8.58
  HFX_MEM_INFO| Total memory consumption ERI's disk [MiB]:                     0
  HFX_MEM_INFO| Total compression factor ERI's disk:                        0.00
  HFX_MEM_INFO| Size of density/Fock matrix [MiB]:                           154
  HFX_MEM_INFO| Size of buffers [MiB]:                                        79
  HFX_MEM_INFO| Number of periodic image cells considered:                    27
  HFX_MEM_INFO| Est. max. program size after HFX  [MiB]:                    2522

     1 OT DIIS     0.80E-01  225.0     0.01154213     -5008.0532533783 -5.01E+03
     2 OT DIIS     0.80E-01   35.7     0.00708514     -5086.8476596875 -7.88E+01
     3 OT DIIS     0.80E-01   36.0     0.00641213     -5125.9461133368 -3.91E+01
     4 OT DIIS     0.80E-01   35.7     0.00622794     -5149.0988961089 -2.32E+01
     5 OT DIIS     0.80E-01   35.7     0.00347590     -5186.9181771768 -3.78E+01
     6 OT DIIS     0.80E-01   35.7     0.00268501     -5199.5026673756 -1.26E+01
     7 OT DIIS     0.80E-01   35.8     0.00198036     -5209.1652921884 -9.66E+00
     8 OT DIIS     0.80E-01   35.8     0.00134354     -5216.0592991402 -6.89E+00
     9 OT DIIS     0.80E-01   35.8     0.00117081     -5218.3969076840 -2.34E+00
    10 OT DIIS     0.80E-01   35.7     0.00082488     -5221.3240045798 -2.93E+00

  Leaving inner SCF loop after reaching    10 steps.


  Electronic density on regular grids:      -2055.9999999830        0.0000000170
  Core density on regular grids:             2055.9999998536       -0.0000001464
  Total charge density on r-space grids:       -0.0000001294
  Total charge density g-space grids:          -0.0000001294

  Overlap energy of the core charge distribution:               0.00004700457417
  Self energy of the core charge distribution:              -9865.05654136270459
  Core Hamiltonian energy:                                   2923.53020716916308
  Hartree energy:                                            2792.54685815977064
  Exchange-correlation energy:                               -842.52918283722533
  Hartree-Fock Exchange energy:                              -228.99439473369199
  Dispersion energy:                                           -0.82099797969157

  Total energy:                                             -5221.32400457980566

  outer SCF iter =    1 RMS gradient =   0.82E-03 energy =      -5221.3240045798

  ----------------------------------- OT ---------------------------------------
  Minimizer      : DIIS                : direct inversion
                                         in the iterative subspace
                                         using   7 DIIS vectors
                                         safer DIIS on
  Preconditioner : FULL_SINGLE_INVERSE : inversion of 
                                         H + eS - 2*(Sc)(c^T*H*c+const)(Sc)^T
  Precond_solver : DEFAULT
  stepsize       :    0.08000000                  energy_gap     :    0.08000000
  eps_taylor     :   0.10000E-15                  max_taylor     :             4
  ----------------------------------- OT ---------------------------------------

  Step     Update method      Time    Convergence         Total energy    Change
  ------------------------------------------------------------------------------
     1 OT DIIS     0.80E-01   74.4     0.00131390     -5222.4662839514 -1.14E+00
     2 OT DIIS     0.80E-01   35.7     0.00114425     -5223.9982242309 -1.53E+00
     3 OT DIIS     0.80E-01   35.9     0.00069982     -5226.0703191825 -2.07E+00
     4 OT DIIS     0.80E-01   35.9     0.00050189     -5226.5968012976 -5.26E-01
     5 OT DIIS     0.80E-01   35.7     0.00042142     -5226.7873501832 -1.91E-01
     6 OT DIIS     0.80E-01   35.7     0.00031015     -5226.9082557117 -1.21E-01
     7 OT DIIS     0.80E-01   35.8     0.00029028     -5226.9645423058 -5.63E-02
     8 OT DIIS     0.80E-01   35.9     0.00028541     -5227.0067405645 -4.22E-02
     9 OT DIIS     0.80E-01   35.8     0.00028447     -5227.0215696499 -1.48E-02
    10 OT DIIS     0.80E-01   35.8     0.00027821     -5227.0439637249 -2.24E-02

  Leaving inner SCF loop after reaching    10 steps.


  Electronic density on regular grids:      -2055.9999999830        0.0000000170
  Core density on regular grids:             2055.9999998536       -0.0000001464
  Total charge density on r-space grids:       -0.0000001294
  Total charge density g-space grids:          -0.0000001294

  Overlap energy of the core charge distribution:               0.00004700457417
  Self energy of the core charge distribution:              -9865.05654136270459
  Core Hamiltonian energy:                                   2919.53488620888675
  Hartree energy:                                            2792.69637612336146
  Exchange-correlation energy:                               -842.84678009063350
  Hartree-Fock Exchange energy:                              -230.55095362865188
  Dispersion energy:                                           -0.82099797969157

  Total energy:                                             -5227.04396372485735

  outer SCF iter =    2 RMS gradient =   0.28E-03 energy =      -5227.0439637249

  ----------------------------------- OT ---------------------------------------
  Minimizer      : DIIS                : direct inversion
                                         in the iterative subspace
                                         using   7 DIIS vectors
                                         safer DIIS on
  Preconditioner : FULL_SINGLE_INVERSE : inversion of 
                                         H + eS - 2*(Sc)(c^T*H*c+const)(Sc)^T
  Precond_solver : DEFAULT
  stepsize       :    0.08000000                  energy_gap     :    0.08000000
  eps_taylor     :   0.10000E-15                  max_taylor     :             4
  ----------------------------------- OT ---------------------------------------

  Step     Update method      Time    Convergence         Total energy    Change
  ------------------------------------------------------------------------------
     1 OT DIIS     0.80E-01   74.2     0.00026016     -5227.1142849936 -7.03E-02
     2 OT DIIS     0.80E-01   35.5     0.00020742     -5227.1645175879 -5.02E-02
     3 OT DIIS     0.80E-01   35.8     0.00018873     -5227.1846032114 -2.01E-02
     4 OT DIIS     0.80E-01   35.7     0.00006458     -5227.2081510500 -2.35E-02
     5 OT DIIS     0.80E-01   35.8     0.00002320     -5227.2090472408 -8.96E-04
     6 OT DIIS     0.80E-01   35.8     0.00001168     -5227.2092850365 -2.38E-04
     7 OT DIIS     0.80E-01   35.7     0.00000721     -5227.2093702953 -8.53E-05
     8 OT DIIS     0.80E-01   35.9     0.00000371     -5227.2094171896 -4.69E-05
     9 OT DIIS     0.80E-01   35.8     0.00000210     -5227.2094248268 -7.64E-06
    10 OT DIIS     0.80E-01   35.7     0.00000120     -5227.2094270977 -2.27E-06

  Leaving inner SCF loop after reaching    10 steps.


  Electronic density on regular grids:      -2055.9999999830        0.0000000170
  Core density on regular grids:             2055.9999998536       -0.0000001464
  Total charge density on r-space grids:       -0.0000001294
  Total charge density g-space grids:          -0.0000001294

  Overlap energy of the core charge distribution:               0.00004700457417
  Self energy of the core charge distribution:              -9865.05654136270459
  Core Hamiltonian energy:                                   2919.41548078679170
  Hartree energy:                                            2792.70961246243769
  Exchange-correlation energy:                               -842.84794011460349
  Hartree-Fock Exchange energy:                              -230.60908789449880
  Dispersion energy:                                           -0.82099797969157

  Total energy:                                             -5227.20942709769406

  outer SCF iter =    3 RMS gradient =   0.12E-05 energy =      -5227.2094270977

  ----------------------------------- OT ---------------------------------------
  Minimizer      : DIIS                : direct inversion
                                         in the iterative subspace
                                         using   7 DIIS vectors
                                         safer DIIS on
  Preconditioner : FULL_SINGLE_INVERSE : inversion of 
                                         H + eS - 2*(Sc)(c^T*H*c+const)(Sc)^T
  Precond_solver : DEFAULT
  stepsize       :    0.08000000                  energy_gap     :    0.08000000
  eps_taylor     :   0.10000E-15                  max_taylor     :             4
  ----------------------------------- OT ---------------------------------------

  Step     Update method      Time    Convergence         Total energy    Change
  ------------------------------------------------------------------------------
     1 OT DIIS     0.80E-01   74.0     0.00000076     -5227.2094278857 -7.88E-07

  *** SCF run converged in     1 steps ***


  Electronic density on regular grids:      -2055.9999999830        0.0000000170
  Core density on regular grids:             2055.9999998536       -0.0000001464
  Total charge density on r-space grids:       -0.0000001294
  Total charge density g-space grids:          -0.0000001294

  Overlap energy of the core charge distribution:               0.00004700457417
  Self energy of the core charge distribution:              -9865.05654136270459
  Core Hamiltonian energy:                                   2919.41574852449094
  Hartree energy:                                            2792.70938826029487
  Exchange-correlation energy:                               -842.84797274243192
  Hartree-Fock Exchange energy:                              -230.60909959025020
  Dispersion energy:                                           -0.82099797969157

  Total energy:                                             -5227.20942788571847

  outer SCF iter =    4 RMS gradient =   0.76E-06 energy =      -5227.2094278857
  outer SCF loop converged in   4 iterations or   31 steps


 ENERGY| Total FORCE_EVAL ( QS ) energy [a.u.]:            -5227.209427885718469

 -------------------------------------------------------------------------------
 -                                                                             -
 -                                DBCSR STATISTICS                             -
 -                                                                             -
 -------------------------------------------------------------------------------
 COUNTER                                    TOTAL       BLAS       SMM       ACC
 flops    14 x     4 x     4               172032       0.0%    100.0%      0.0%     
 flops     4 x     4 x   976               249856       0.0%    100.0%      0.0%     
 flops    41 x     4 x     4               419840       0.0%    100.0%      0.0%     
 flops     4 x     4 x   974               498688       0.0%    100.0%      0.0%     
 flops     4 x     4 x   962               615680       0.0%    100.0%      0.0%     
 flops    29 x     4 x     4              2383104       0.0%    100.0%      0.0%     
 flops    14 x    32 x     4             22020096       0.0%    100.0%      0.0%     
 flops    14 x     4 x    32             22020096       0.0%    100.0%      0.0%     
 flops    32 x     4 x   976             31981568       0.0%    100.0%      0.0%     
 flops     4 x    32 x   976             31981568       0.0%    100.0%      0.0%     
 flops    41 x    32 x     4             53739520       0.0%    100.0%      0.0%     
 flops    41 x     4 x    32             53739520       0.0%    100.0%      0.0%     
 flops    32 x     4 x   974             63832064       0.0%    100.0%      0.0%     
 flops     4 x    32 x   974             63832064       0.0%    100.0%      0.0%     
 flops     6 x     6 x    68             75584448       0.0%    100.0%      0.0%     
 flops    32 x     4 x   962             78807040       0.0%    100.0%      0.0%     
 flops     4 x    32 x   962             78807040       0.0%    100.0%      0.0%     
 flops    31 x     6 x    68            112921344       0.0%    100.0%      0.0%     
 flops    14 x     4 x    14            120422400       0.0%    100.0%      0.0%     
 flops    68 x    68 x    68            155329408       0.0%    100.0%      0.0%     
 flops     6 x     6 x    64            213414912       0.0%    100.0%      0.0%     
 flops    29 x    32 x     4            305037312       0.0%    100.0%      0.0%     
 flops    29 x     4 x    32            305037312       0.0%    100.0%      0.0%     
 flops    31 x     6 x    64            318836736       0.0%    100.0%      0.0%     
 flops    41 x    14 x    68            419672064       0.0%    100.0%      0.0%     
 flops    64 x    68 x    68            438577152       0.0%    100.0%      0.0%     
 flops    68 x    64 x    68            438577152       0.0%    100.0%      0.0%     
 flops    68 x    68 x    64            438577152       0.0%    100.0%      0.0%     
 flops    14 x    14 x    68            555297792       0.0%    100.0%      0.0%     
 flops    41 x     4 x    14            564264960       0.0%    100.0%      0.0%     
 flops    14 x     4 x    41            564264960       0.0%    100.0%      0.0%     
 flops     6 x    31 x    68            790449408       0.0%    100.0%      0.0%     
 flops     6 x     6 x    96            853659648       0.0%    100.0%      0.0%     
 flops     6 x    17 x    68            966711936       0.0%    100.0%      0.0%     
 flops    17 x     6 x    68           1165386720       0.0%    100.0%      0.0%     
 flops    41 x    14 x    64           1184956416       0.0%    100.0%      0.0%     
 flops    64 x    64 x    68           1238335488       0.0%    100.0%      0.0%     
 flops    64 x    68 x    64           1238335488       0.0%    100.0%      0.0%     
 flops    68 x    64 x    64           1238335488       0.0%    100.0%      0.0%     
 flops    31 x     6 x    96           1275346944       0.0%    100.0%      0.0%     
 flops   963 x    68 x    68           1309156128       0.0%    100.0%      0.0%     
 flops    14 x    14 x    64           1567899648       0.0%    100.0%      0.0%     
 flops    41 x     4 x    41           1712737280       0.0%    100.0%      0.0%     
 flops    68 x    68 x    96           1754308608       0.0%    100.0%      0.0%     
 flops    68 x    96 x    68           1754308608       0.0%    100.0%      0.0%     
 flops    96 x    68 x    68           1754308608       0.0%    100.0%      0.0%     
 flops    14 x     4 x    29           1867729920       0.0%    100.0%      0.0%     
 flops    29 x     4 x    14           1867729920       0.0%    100.0%      0.0%     
 flops    68 x    68 x   976           2166251520       0.0%    100.0%      0.0%     
 flops     6 x    31 x    64           2231857152       0.0%    100.0%      0.0%     
 flops   976 x    68 x    68           2653658112       0.0%    100.0%      0.0%     
 flops     6 x    17 x    64           2729539584       0.0%    100.0%      0.0%     
 flops    31 x    31 x    68           2738865376       0.0%    100.0%      0.0%     
 flops    17 x     6 x    64           3290503680       0.0%    100.0%      0.0%     
 flops    64 x    64 x    64           3496476672       0.0%    100.0%      0.0%     
 flops   963 x    64 x    68           3696440832       0.0%    100.0%      0.0%     
 flops   963 x    68 x    64           3696440832       0.0%    100.0%      0.0%     
 flops    14 x    41 x    68           4016861184       0.0%    100.0%      0.0%     
 flops    68 x    68 x   974           4323624960       0.0%    100.0%      0.0%     
 flops    41 x    14 x    96           4739825664       0.0%    100.0%      0.0%     
 flops    64 x    68 x    96           4953341952       0.0%    100.0%      0.0%     
 flops    64 x    96 x    68           4953341952       0.0%    100.0%      0.0%     
 flops    68 x    64 x    96           4953341952       0.0%    100.0%      0.0%     
 flops    68 x    96 x    64           4953341952       0.0%    100.0%      0.0%     
 flops    96 x    64 x    68           4953341952       0.0%    100.0%      0.0%     
 flops    96 x    68 x    64           4953341952       0.0%    100.0%      0.0%     
 flops   974 x    68 x    68           5296440576       0.0%    100.0%      0.0%     
 flops    68 x    68 x   962           5337945600       0.0%    100.0%      0.0%     
 flops    14 x    32 x    32           5813305344       0.0%    100.0%      0.0%     
 flops    64 x    68 x   976           6116474880       0.0%    100.0%      0.0%     
 flops    68 x    64 x   976           6116474880       0.0%    100.0%      0.0%     
 flops    14 x    14 x    96           6271598592       0.0%    100.0%      0.0%     
 flops   962 x    68 x    68           6538983360       0.0%    100.0%      0.0%     
 flops    41 x    41 x    68           6719481472       0.0%    100.0%      0.0%     
 flops    14 x    29 x    68           6917460480       0.0%    100.0%      0.0%     
 flops   976 x    64 x    68           7492681728       0.0%    100.0%      0.0%     
 flops   976 x    68 x    64           7492681728       0.0%    100.0%      0.0%     
 flops    17 x    31 x    68           7718644368       0.0%    100.0%      0.0%     
 flops    31 x    31 x    64           7733266944       0.0%    100.0%      0.0%     
 flops    32 x    32 x   976           8443133952       0.0%    100.0%      0.0%     
 flops     6 x    31 x    96           8927428608       0.0%    100.0%      0.0%     
 flops   963 x    68 x   976           8947733760       0.0%    100.0%      0.0%     
 flops    41 x     4 x    29           9111735040       0.0%    100.0%      0.0%     
 flops    29 x     4 x    41           9111735040       0.0%    100.0%      0.0%     
 flops    29 x    14 x    68           9186175488       0.0%    100.0%      0.0%     
 flops    31 x    17 x    68          10253754680       0.0%    100.0%      0.0%     
 flops   963 x    64 x    64          10437009408       0.0%    100.0%      0.0%     
 flops     6 x    17 x    96          10918158336       0.0%    100.0%      0.0%     
 flops    14 x    41 x    64          11341725696       0.0%    100.0%      0.0%     
 flops    64 x    68 x   974          12207882240       0.0%    100.0%      0.0%     
 flops    68 x    64 x   974          12207882240       0.0%    100.0%      0.0%     
 flops    17 x     6 x    96          13162014720       0.0%    100.0%      0.0%     
 flops    64 x    64 x    96          13985906688       0.0%    100.0%      0.0%     
 flops    64 x    96 x    64          13985906688       0.0%    100.0%      0.0%     
 flops    96 x    64 x    64          13985906688       0.0%    100.0%      0.0%     
 flops    41 x    32 x    32          14187233280       0.0%    100.0%      0.0%     
 flops   963 x    68 x    96          14785763328       0.0%    100.0%      0.0%     
 flops   963 x    96 x    68          14785763328       0.0%    100.0%      0.0%     
 flops   974 x    64 x    68          14954655744       0.0%    100.0%      0.0%     
 flops   974 x    68 x    64          14954655744       0.0%    100.0%      0.0%     
 flops    64 x    68 x   962          15071846400       0.0%    100.0%      0.0%     
 flops    68 x    64 x   962          15071846400       0.0%    100.0%      0.0%     
 flops    32 x    32 x   974          16851664896       0.0%    100.0%      0.0%     
 flops    64 x    64 x   976          17270046720       0.0%    100.0%      0.0%     
 flops   963 x    68 x   974          17858796480       0.0%    100.0%      0.0%     
 flops   976 x    68 x   976          18137047040       0.0%    100.0%      0.0%     
 flops   962 x    64 x    68          18463011840       0.0%    100.0%      0.0%     
 flops   962 x    68 x    64          18463011840       0.0%    100.0%      0.0%     
 flops    17 x    17 x    68          18733269000       0.0%    100.0%      0.0%     
 flops    41 x    41 x    64          18972653568       0.0%    100.0%      0.0%     
 flops    14 x    29 x    64          19531653120       0.0%    100.0%      0.0%     
 flops    96 x    96 x    68          19813367808       0.0%    100.0%      0.0%     
 flops    68 x    96 x    96          19813367808       0.0%    100.0%      0.0%     
 flops    96 x    68 x    96          19813367808       0.0%    100.0%      0.0%     
 flops    32 x    32 x   962          20805058560       0.0%    100.0%      0.0%     
 flops   976 x    64 x    64          21155807232       0.0%    100.0%      0.0%     
 flops    17 x    31 x    64          21793819392       0.0%    100.0%      0.0%     
 flops   963 x    68 x   962          22048462800       0.0%    100.0%      0.0%     
 flops    68 x    96 x   976          24465899520       0.0%    100.0%      0.0%     
 flops    96 x    68 x   976          24465899520       0.0%    100.0%      0.0%     
 flops   963 x    64 x   976          25264189440       0.0%    100.0%      0.0%     
 flops    29 x    14 x    64          25937436672       0.0%    100.0%      0.0%     
 flops    31 x    17 x    64          28951777920       0.0%    100.0%      0.0%     
 flops    29 x    41 x    68          29911359104       0.0%    100.0%      0.0%     
 flops   976 x    68 x    96          29970726912       0.0%    100.0%      0.0%     
 flops   976 x    96 x    68          29970726912       0.0%    100.0%      0.0%     
 flops    14 x    32 x    14          30828134400       0.0%    100.0%      0.0%     
 flops    31 x    31 x    96          30933067776       0.0%    100.0%      0.0%     
 flops    29 x     4 x    29          32512387200       0.0%    100.0%      0.0%     
 flops    64 x    64 x   974          34469314560       0.0%    100.0%      0.0%     
 flops   976 x    68 x   974          36199761920       0.0%    100.0%      0.0%     
 flops   974 x    68 x   976          36199761920       0.0%    100.0%      0.0%     
 flops    41 x    29 x    68          40353556608       0.0%    100.0%      0.0%     
 flops   963 x    64 x    96          41748037632       0.0%    100.0%      0.0%     
 flops   963 x    96 x    64          41748037632       0.0%    100.0%      0.0%     
 flops   974 x    64 x    64          42224910336       0.0%    100.0%      0.0%     
 flops    64 x    64 x   962          42555801600       0.0%    100.0%      0.0%     
 flops   976 x    68 x   962          44692211200       0.0%    100.0%      0.0%     
 flops   962 x    68 x   976          44692211200       0.0%    100.0%      0.0%     
 flops    14 x    41 x    96          45366902784       0.0%    100.0%      0.0%     
 flops    68 x    96 x   974          48831528960       0.0%    100.0%      0.0%     
 flops    96 x    68 x   974          48831528960       0.0%    100.0%      0.0%     
 flops   963 x    64 x   974          50424837120       0.0%    100.0%      0.0%     
 flops   976 x    64 x   976          51210485760       0.0%    100.0%      0.0%     
 flops   962 x    64 x    64          52130856960       0.0%    100.0%      0.0%     
 flops    17 x    17 x    64          52893936000       0.0%    100.0%      0.0%     
 flops    96 x    96 x    64          55943626752       0.0%    100.0%      0.0%     
 flops    64 x    96 x    96          55943626752       0.0%    100.0%      0.0%     
 flops    96 x    64 x    96          55943626752       0.0%    100.0%      0.0%     
 flops   974 x    96 x    68          59818622976       0.0%    100.0%      0.0%     
 flops   974 x    68 x    96          59818622976       0.0%    100.0%      0.0%     
 flops    68 x    96 x   962          60287385600       0.0%    100.0%      0.0%     
 flops    96 x    68 x   962          60287385600       0.0%    100.0%      0.0%     
 flops   963 x    64 x   962          62254483200       0.0%    100.0%      0.0%     
 flops    64 x    96 x   976          69080186880       0.0%    100.0%      0.0%     
 flops    96 x    64 x   976          69080186880       0.0%    100.0%      0.0%     
 flops   974 x    68 x   974          72251164160       0.0%    100.0%      0.0%     
 flops   962 x    68 x    96          73852047360       0.0%    100.0%      0.0%     
 flops   962 x    96 x    68          73852047360       0.0%    100.0%      0.0%     
 flops    41 x    41 x    96          75890614272       0.0%    100.0%      0.0%     
 flops    14 x    29 x    96          78126612480       0.0%    100.0%      0.0%     
 flops    29 x    32 x    32          80529850368       0.0%    100.0%      0.0%     
 flops    29 x    41 x    64          84455602176       0.0%    100.0%      0.0%     
 flops   976 x    64 x    96          84623228928       0.0%    100.0%      0.0%     
 flops   976 x    96 x    64          84623228928       0.0%    100.0%      0.0%     
 flops    17 x    31 x    96          87175277568       0.0%    100.0%      0.0%     
 flops   962 x    68 x   974          89201257600       0.0%    100.0%      0.0%     
 flops   974 x    68 x   962          89201257600       0.0%    100.0%      0.0%     
 flops   963 x    96 x   976         101056757760       0.0%    100.0%      0.0%     
 flops   976 x    64 x   974         102211092480       0.0%    100.0%      0.0%     
 flops   974 x    64 x   976         102211092480       0.0%    100.0%      0.0%     
 flops    29 x    14 x    96         103749746688       0.0%    100.0%      0.0%     
 flops   962 x    68 x   962         110127836000       0.0%    100.0%      0.0%     
 flops    41 x    29 x    64         113939453952       0.0%    100.0%      0.0%     
 flops    31 x    17 x    96         115807111680       0.0%    100.0%      0.0%     
 flops   976 x    64 x   962         126189772800       0.0%    100.0%      0.0%     
 flops   962 x    64 x   976         126189772800       0.0%    100.0%      0.0%     
 flops    29 x    29 x    68         134773815840       0.0%    100.0%      0.0%     
 flops    64 x    96 x   974         137877258240       0.0%    100.0%      0.0%     
 flops    96 x    64 x   974         137877258240       0.0%    100.0%      0.0%     
 flops    41 x    32 x    14         144451829760       0.0%    100.0%      0.0%     
 flops    14 x    32 x    41         144451829760       0.0%    100.0%      0.0%     
 flops   963 x    96 x    96         166992150528       0.0%    100.0%      0.0%     
 flops   974 x    96 x    64         168899641344       0.0%    100.0%      0.0%     
 flops   974 x    64 x    96         168899641344       0.0%    100.0%      0.0%     
 flops    64 x    96 x   962         170223206400       0.0%    100.0%      0.0%     
 flops    96 x    64 x   962         170223206400       0.0%    100.0%      0.0%     
 flops   963 x    96 x   974         201699348480       0.0%    100.0%      0.0%     
 flops   974 x    64 x   974         204003287040       0.0%    100.0%      0.0%     
 flops   976 x    96 x   976         204841943040       0.0%    100.0%      0.0%     
 flops   962 x    64 x    96         208523427840       0.0%    100.0%      0.0%     
 flops   962 x    96 x    64         208523427840       0.0%    100.0%      0.0%     
 flops    17 x    17 x    96         211575744000       0.0%    100.0%      0.0%     
 flops    96 x    96 x    96         223774507008       0.0%    100.0%      0.0%     
 flops   963 x    96 x   962         249017932800       0.0%    100.0%      0.0%     
 flops   962 x    64 x   974         251862374400       0.0%    100.0%      0.0%     
 flops   974 x    64 x   962         251862374400       0.0%    100.0%      0.0%     
 flops    96 x    96 x   976         276320747520       0.0%    100.0%      0.0%     
 flops   962 x    64 x   962         310949184000       0.0%    100.0%      0.0%     
 flops    29 x    41 x    96         337822408704       0.0%    100.0%      0.0%     
 flops   976 x    96 x    96         338492915712       0.0%    100.0%      0.0%     
 flops    29 x    29 x    64         380537832960       0.0%    100.0%      0.0%     
 flops   974 x    96 x   976         408844369920       0.0%    100.0%      0.0%     
 flops   976 x    96 x   974         408844369920       0.0%    100.0%      0.0%     
 flops    41 x    32 x    41         438460743680       0.0%    100.0%      0.0%     
 flops    41 x    29 x    96         455757815808       0.0%    100.0%      0.0%     
 flops    14 x    32 x    29         478138859520       0.0%    100.0%      0.0%     
 flops    29 x    32 x    14         478138859520       0.0%    100.0%      0.0%     
 flops   976 x    96 x   962         504759091200       0.0%    100.0%      0.0%     
 flops   962 x    96 x   976         504759091200       0.0%    100.0%      0.0%     
 flops    96 x    96 x   974         551509032960       0.0%    100.0%      0.0%     
 flops   974 x    96 x    96         675598565376       0.0%    100.0%      0.0%     
 flops    96 x    96 x   962         680892825600       0.0%    100.0%      0.0%     
 flops   974 x    96 x   974         816013148160       0.0%    100.0%      0.0%     
 flops   962 x    96 x    96         834093711360       0.0%    100.0%      0.0%     
 flops   974 x    96 x   962        1007449497600       0.0%    100.0%      0.0%     
 flops   962 x    96 x   974        1007449497600       0.0%    100.0%      0.0%     
 flops   962 x    96 x   962        1243796736000       0.0%    100.0%      0.0%     
 flops    29 x    29 x    96        1522151331840       0.0%    100.0%      0.0%     
 flops    41 x    32 x    29        2332604170240       0.0%    100.0%      0.0%     
 flops    29 x    32 x    41        2332604170240       0.0%    100.0%      0.0%     
 flops    29 x    32 x    29        8323171123200       0.0%    100.0%      0.0%     
 flops inhomo. stacks               1068203727232     100.0%      0.0%      0.0%
 flops total                        35.902913E+12       3.0%     97.0%      0.0%
 flops max/rank                    287.621951E+09       3.0%     97.0%      0.0%
 matmuls inhomo. stacks                     24564     100.0%      0.0%      0.0%
 matmuls total                          313880232       0.0%    100.0%      0.0%
 number of processed stacks               3380372       0.7%     99.3%      0.0%
 average stack size                                     1.1      93.5       0.0
 marketing flops                    52.523524E+12
 -------------------------------------------------------------------------------
 # multiplications                            712
 max memory usage/rank               2.579972E+09
 # max total images/rank                        1
 # max 3D layers                                1
 # MPI messages exchanged                 2255616
 MPI messages size (bytes):
  total size                         1.767133E+12
  min size                           0.000000E+00
  max size                           7.620608E+06
  average size                     783.436938E+03
 MPI breakdown and total messages size (bytes):
             size <=      128               18480                        0
       128 < size <=     8192                   0                        0
      8192 < size <=    32768               64383               2103940608
     32768 < size <=   131072              957825              57890659200
    131072 < size <=  4194304             1032768             659433709440
   4194304 < size <= 16777216              182160            1047709808200
  16777216 < size                               0                        0
 -------------------------------------------------------------------------------
 -                                                                             -
 -                      DBCSR MESSAGE PASSING PERFORMANCE                      -
 -                                                                             -
 -------------------------------------------------------------------------------
 ROUTINE             CALLS      AVE VOLUME [Bytes]
 MP_Bcast              223                     12.
 MP_Allreduce         4227                     30.
 MP_Alltoall          4670                 317379.
 MP_ISend            34160                 370497.
 MP_IRecv            34160                 367950.
 -------------------------------------------------------------------------------

 -------------------------------------------------------------------------------
 -                                                                             -
 -                                DBM STATISTICS                               -
 -                                                                             -
 -------------------------------------------------------------------------------
    M  x    N  x    K                                          COUNT     PERCENT
 -------------------------------------------------------------------------------

 -------------------------------------------------------------------------------
 -                                                                             -
 -                                GRID STATISTICS                              -
 -                                                                             -
 -------------------------------------------------------------------------------
 LP    KERNEL             BACKEND                              COUNT     PERCENT
 6     collocate ortho    CPU                                8421280      16.31%
 6     integrate ortho    CPU                                8158270      15.80%
 1     collocate ortho    CPU                                5989758      11.60%
 1     integrate ortho    CPU                                5989758      11.60%
 2     collocate ortho    CPU                                4670832       9.05%
 2     integrate ortho    CPU                                4670832       9.05%
 0     collocate ortho    CPU                                2888704       5.59%
 0     integrate ortho    CPU                                2888704       5.59%
 3     collocate ortho    CPU                                1871997       3.63%
 3     integrate ortho    CPU                                1871997       3.63%
 5     collocate ortho    CPU                                1579544       3.06%
 5     integrate ortho    CPU                                1532268       2.97%
 4     collocate ortho    CPU                                 524027       1.01%
 4     integrate ortho    CPU                                 520955       1.01%
 0     collocate general  CPU                                  58896       0.11%
 -------------------------------------------------------------------------------

 MEMORY| Estimated peak process memory [MiB]                                2615

 -------------------------------------------------------------------------------
 -                                                                             -
 -                         MESSAGE PASSING PERFORMANCE                         -
 -                                                                             -
 -------------------------------------------------------------------------------

 ROUTINE             CALLS      AVE VOLUME [Bytes]
 MP_Group                4
 MP_Bcast             4064                3628728.
 MP_Allreduce         9471                   2681.
 MP_Sync               190
 MP_Alltoall          1434                8774578.
 MP_SendRecv         18018                  44208.
 MP_ISendRecv        26884                 267260.
 MP_Wait             38430
 MP_comm_split          28
 MP_ISend            10542                 254446.
 MP_IRecv            10542                 254407.
 -------------------------------------------------------------------------------


 -------------------------------------------------------------------------------
 -                                                                             -
 -                           R E F E R E N C E S                               -
 -                                                                             -
 -------------------------------------------------------------------------------
 
 CP2K version 2024.2 (Development Version), the CP2K developers group (2024).
 CP2K is freely available from https://www.cp2k.org/ .
 
 T. D. Kuehne, M. Iannuzzi, M. Del Ben, V. V. Rybkin, P. Seewald, F. Stein, T. 
 Laino, R. Z. Khaliullin, O. Schuett, F. Schiffmann, D. Golze, J. Wilhelm, S. 
 Chulkov, M. H. Bani-Hashemian, V. Weber, U. Borstnik, M. Taillefumier, A. S. 
 Jakobovits, A. Lazzaro, H. Pabst, T. Mueller, R. Schade, M. Guidon, S. 
 Andermatt, N. Holmberg, G. K. Schenter, A. Hehn, A. Bussy, F. Belleflamme, G. 
 Tabacchi, A. Gloess, M. Lass, I. Bethune, C. J. Mundy, C. Plessl, M. Watkins, 
 J. VandeVondele, M. Krack, J. Hutter.
 J. Chem. Phys. 152, 194103 (2020).
 CP2K: An electronic structure and molecular dynamics software package - 
 Quickstep: Efficient and accurate electronic structure calculations.
 https://doi.org/10.1063/5.0007045

 S. Lehtola, C. Steigemann, M. J. T. Oliveira, M. A. L. Marques.
 SoftwareX 7, 1-5 (2018).
 Recent developments in libxc - A comprehensive library of functionals for 
 density functional theory.
 https://doi.org/10.1016/j.softx.2017.11.002

 L. Goerigk, A. Hansen, C. Bauer, S. Ehrlich, A. Najibi, S. Grimme.
 Phys. Chem. Chem. Phys. 19, 32184-32215 (2017).
 A look at the density functional theory zoo with the advanced GMTKN55 database 
 for general main group thermochemistry, kinetics and noncovalent interactions.
 https://doi.org/10.1039/C7CP04913G

 O. Schuett, P. Messmer, J. Hutter, J. VandeVondele.
 Electronic Structure Calculations on Graphics Processing Units, 173-190 (2016).
 GPU-Accelerated Sparse Matrix-Matrix Multiplication for Linear Scaling Density 
 Functional Theory.
 https://doi.org/10.1002/9781118670712.ch8

 A. Heinecke, G. Henry, M. Hutchinson, H. Pabst.
 Proceedings of Intl. Supercomputing Conference, 981-991 (2016).
 LIBXSMM: Accelerating Small Matrix Multiplications by Runtime Code Generation.
 https://doi.org/10.1109/SC.2016.83

 J. Hutter, M. Iannuzzi, F. Schiffmann, J. VandeVondele.
 WIREs Comput Mol Sci. 4, 15-25 (2014).
 CP2K: atomistic simulations of condensed matter systems.
 https://doi.org/10.1002/wcms.1159

 U. Borstnik, J. VandeVondele, V. Weber, J. Hutter.
 Parallel Comput. 40, 47-58 (2014).
 Sparse matrix multiplication: The distributed block-compressed sparse row 
 library.
 https://doi.org/10.1016/j.parco.2014.03.012

 M. A. L. Marques, M. J. T. Oliveira, T. Burnus.
 Comput. Phys. Commun. 183, 2272-2281 (2012).
 LIBXC: A library of exchange and correlation functionals for density functional 
 theory.
 https://doi.org/10.1016/j.cpc.2012.05.007

 S. Grimme, S. Ehrlich, L. Goerigk.
 J. Comput. Chem. 32, 1456 (2011).
 Effect of the damping function in dispersion corrected density functional 
 theory.
 https://doi.org/10.1002/jcc.21759

 S. Grimme, J. Antony, S. Ehrlich, H. Krieg.
 J. Chem. Phys. 132, 154104 (2010).
 A consistent and accurate ab initio parametrization of density functional 
 dispersion correction (DFT-D) for the 94 elements H-Pu.
 https://doi.org/10.1063/1.3382344

 M. Guidon, J. Hutter, J. VandeVondele.
 J. Chem. Theory Comput. 6, 2348-2364 (2010).
 Auxiliary Density Matrix Methods for Hartree-Fock Exchange Calculations.
 https://doi.org/10.1021/ct1002225

 M. Guidon, J. Hutter, J. VandeVondele.
 J. Chem. Theory Comput. 5, 3010-3021 (2009).
 Robust Periodic Hartree-Fock Exchange for Large-Scale Simulations Using 
 Gaussian Basis Sets.
 https://doi.org/10.1021/ct900494g

 M. Guidon, F. Schiffmann, J. Hutter, J. VandeVondele.
 J. Chem. Phys. 128, 214104 (2008).
 Ab initio molecular dynamics using hybrid density functionals.
 https://doi.org/10.1063/1.2931945

 J. VandeVondele, J. Hutter.
 J. Chem. Phys. 127, 114105 (2007).
 Gaussian basis sets for accurate calculations on molecular systems in gas and 
 condensed phases.
 https://doi.org/10.1063/1.2770708

 J. VandeVondele, M. Krack, F. Mohamed, M. Parrinello, T. Chassaing, J. Hutter.
 Comput. Phys. Commun. 167, 103-128 (2005).
 QUICKSTEP: Fast and accurate density functional calculations using a mixed 
 Gaussian and plane waves approach.
 https://doi.org/10.1016/j.cpc.2004.12.014

 M. Krack.
 Theor. Chem. Acc. 114, 145-152 (2005).
 Pseudopotentials for H to Kr optimized for gradient-corrected 
 exchange-correlation functionals.
 https://doi.org/10.1007/s00214-005-0655-y

 M. Frigo, S. G. Johnson.
 Proc. IEEE 93, 216-231 (2005).
 The design and implementation of FFTW3.
 https://doi.org/10.1109/JPROC.2004.840301

 J. VandeVondele, J. Hutter.
 J. Chem. Phys. 118, 4365-4369 (2003).
 An efficient orbital transformation method for electronic structure 
 calculations.
 https://doi.org/10.1063/1.1543154

 C. Hartwigsen, S. Goedecker, J. Hutter.
 Phys. Rev. B 58, 3641-3662 (1998).
 Relativistic separable dual-space Gaussian pseudopotentials from H to Rn.
 https://doi.org/10.1103/PhysRevB.58.3641

 G. Lippert, J. Hutter, M. Parrinello.
 Mol. Phys. 92, 477-487 (1997).
 A hybrid Gaussian and plane wave density functional scheme.
 https://doi.org/10.1080/002689797170220

 S. Goedecker, M. Teter, J. Hutter.
 Phys. Rev. B 54, 1703-1710 (1996).
 Separable dual-space Gaussian pseudopotentials.
 https://doi.org/10.1103/PhysRevB.54.1703

 J. P. Perdew, K. Burke, M. Ernzerhof.
 Phys. Rev. Lett. 77, 3865-3868 (1996).
 Generalized gradient approximation made simple.
 https://doi.org/10.1103/PhysRevLett.77.3865


 -------------------------------------------------------------------------------
 -                                                                             -
 -                                T I M I N G                                  -
 -                                                                             -
 -------------------------------------------------------------------------------
 SUBROUTINE                       CALLS  ASD         SELF TIME        TOTAL TIME
                                MAXIMUM       AVERAGE  MAXIMUM  AVERAGE  MAXIMUM
 CP2K                                 1  1.0    0.071    0.092 1310.216 1310.221
 qs_energies                          1  2.0    0.005    0.007 1308.484 1308.489
 scf_env_do_scf                       1  3.0    0.000    0.000 1307.035 1307.040
 qs_ks_update_qs_env                 35  5.0    0.000    0.000 1263.258 1263.265
 rebuild_ks_matrix                   31  6.0    0.000    0.000 1263.175 1263.180
 qs_ks_build_kohn_sham_matrix        31  7.0    0.005    0.006 1263.175 1263.180
 hfx_ks_matrix                       31  8.0    0.002    0.003 1162.521 1162.549
 integrate_four_center               31  9.0    1.557    2.032 1162.424 1162.440
 integrate_four_center_main          31 10.0    0.035    0.038 1091.964 1126.195
 integrate_four_center_bin         1984 11.0 1091.929 1126.161 1091.929 1126.161
 scf_env_do_scf_inner_loop           31  4.0    0.001    0.008  970.495  970.756
 init_scf_loop                        4  4.0    0.000    0.000  336.410  336.422
 mp_sync                            190 11.1   36.677   70.150   36.677   70.150
 parallel_gemm_fm                   130 10.1    0.000    0.000   34.760   35.066
 parallel_gemm_fm_gemm              130 11.1    0.000    0.000   34.760   35.066
 cp_fm_gemm                         130 12.1   34.760   35.066   34.760   35.066
 admm_mo_merge_ks_matrix             31  8.0    0.000    0.000   33.002   33.024
 merge_ks_matrix_none                31  9.0    0.002    0.002   33.002   33.024
 qs_vxc_create                       62  8.0    0.001    0.001   31.227   31.227
 xc_vxc_pw_create                    62  9.0    0.156    0.194   31.226   31.226
 fft_wrap_pw1pw2                   1029 10.8    0.021    0.030   27.097   28.524
 fft_wrap_pw1pw2_300                654 12.1    0.901    0.951   25.858   27.295
 -------------------------------------------------------------------------------

 The number of warnings for this run is : 2
 
 -------------------------------------------------------------------------------
  **** **** ******  **  PROGRAM ENDED AT                 2024-09-13 00:52:22.767
 ***** ** ***  *** **   PROGRAM RAN ON                                  nid04452
 **    ****   ******    PROGRAM RAN BY                                  bsertcan
 ***** **    ** ** **   PROGRAM PROCESS ID                                 15792
  **** **  *******  **  PROGRAM STOPPED IN /scratch/snx3000/bsertcan/MFU_sp/cl/k
                                           r/rep41
