 DBCSR| CPU Multiplication driver                                           XSMM (U)
 DBCSR| Multrec recursion limit                                              512 (U)
 DBCSR| Multiplication stack size                                           1000 (D)
 DBCSR| Maximum elements for images                                    UNLIMITED (U)
 DBCSR| Multiplicative factor virtual images                                   1 (U)
 DBCSR| Use multiplication densification                                       T (D)
 DBCSR| Multiplication size stacks                                             3 (U)
 DBCSR| Use memory pool for CPU allocation                                     F (U)
 DBCSR| Number of 3D layers                                               SINGLE (U)
 DBCSR| Use MPI memory allocation                                              F (U)
 DBCSR| Use RMA algorithm                                                      F (U)
 DBCSR| Use Communication thread                                               T (U)
 DBCSR| Communication thread load                                             87 (D)
 DBCSR| MPI: My process id                                                     0
 DBCSR| MPI: Number of processes                                             144
 DBCSR| OMP: Current number of threads                                         1
 DBCSR| OMP: Max number of threads                                             1
 DBCSR| Split modifier for TAS multiplication algorithm                  1.0E+00 (U)


  **** **** ******  **  PROGRAM STARTED AT               2024-09-13 03:35:41.945
 ***** ** ***  *** **   PROGRAM STARTED ON                              nid03788
 **    ****   ******    PROGRAM STARTED BY                              bsertcan
 ***** **    ** ** **   PROGRAM PROCESS ID                                  3027
  **** **  *******  **  PROGRAM STARTED IN /scratch/snx3000/bsertcan/MFU_sp/rsca
                                           n/cl/kr/rep32

 CP2K| version string:                 CP2K version 2024.2 (Development Version)
 CP2K| source code revision number:                                  git:42d1e6b
 CP2K| cp2kflags: omp libint fftw3 libxc parallel scalapack xsmm                
 CP2K| is freely available from                            https://www.cp2k.org/
 CP2K| Program compiled at                         Tue Sep  3 22:59:39 CEST 2024
 CP2K| Program compiled on                                              daint106
 CP2K| Program compiled for                                                local
 CP2K| Data directory path                             /users/bsertcan/cp2k/data
 CP2K| Input file name                                                 input.inp

 GLOBAL| Force Environment number                                              1
 GLOBAL| Basis set file name                                    BASIS_MOLOPT_UZH
 GLOBAL| Potential file name                                       POTENTIAL_UZH
 GLOBAL| MM Potential file name                                     MM_POTENTIAL
 GLOBAL| Coordinate file name                                         rep_32.xyz
 GLOBAL| Method name                                                        CP2K
 GLOBAL| Project name                                                 Replica_32
 GLOBAL| Run type                                                         ENERGY
 GLOBAL| FFT library                                                       FFTW3
 GLOBAL| Diagonalization library                                       ScaLAPACK
 GLOBAL| DGEMM library                                                      BLAS
 GLOBAL| Orthonormality check for eigenvectors                          DISABLED
 GLOBAL| Matrix multiplication library                                 ScaLAPACK
 GLOBAL| All-to-all communication in single precision                          F
 GLOBAL| FFTs using library dependent lengths                                  F
 GLOBAL| Grid backend                                                       AUTO
 GLOBAL| Global print level                                                  LOW
 GLOBAL| MPI I/O enabled                                                       T
 GLOBAL| Total number of message passing processes                           144
 GLOBAL| Number of threads for this process                                    1
 GLOBAL| This output is from process                                           0
 GLOBAL| Stack size for threads created by OpenMP (OMP_STACKSIZE)             5M
 GLOBAL| CPU model name                Intel(R) Xeon(R) CPU E5-2690 v3 @ 2.60GHz
 GLOBAL| CPUID                                                              1002

 MEMORY| system memory details [Kb]
 MEMORY|                        rank 0           min           max       average
 MEMORY| MemTotal             65740148      65740148      65740148      65740148
 MEMORY| MemFree              60897476      60876072      61254348      60957673
 MEMORY| Buffers                  8404          6832          9080          7658
 MEMORY| Cached                1863108       1565028       1879744       1820960
 MEMORY| Slab                   216912        205660        216912        213997
 MEMORY| SReclaimable            48620         47256         48620         47915
 MEMORY| MemLikelyFree        62817608      62807360      62873464      62834207


 *******************************************************************************
 *******************************************************************************
 **                                                                           **
 **     #####                         ##              ##                      **
 **    ##   ##            ##          ##              ##                      **
 **   ##     ##                       ##            ######                    **
 **   ##     ##  ##   ##  ##   #####  ##  ##   ####   ##    #####    #####    **
 **   ##     ##  ##   ##  ##  ##      ## ##   ##      ##   ##   ##  ##   ##   **
 **   ##  ## ##  ##   ##  ##  ##      ####     ###    ##   ######   ######    **
 **    ##  ###   ##   ##  ##  ##      ## ##      ##   ##   ##       ##        **
 **     #######   #####   ##   #####  ##  ##  ####    ##    #####   ##        **
 **           ##                                                    ##        **
 **                                                                           **
 **                                                ... make the atoms dance   **
 **                                                                           **
 **            Copyright (C) by CP2K developers group (2000-2024)             **
 **                      J. Chem. Phys. 152, 194103 (2020)                    **
 **                                                                           **
 *******************************************************************************


 TOTAL NUMBERS AND MAXIMUM NUMBERS

  Total number of            - Atomic kinds:                                   6
                             - Atoms:                                        409
                             - Shell sets:                                   409
                             - Shells:                                      3617
                             - Primitive Cartesian functions:               2052
                             - Cartesian basis functions:                  13634
                             - Spherical basis functions:                  11621

  Maximum angular momentum of- Orbital basis functions:                        3
                             - Local part of the GTH pseudopotential:          2
                             - Non-local part of the GTH pseudopotential:      4

  AUX_FIT ADMM-Basis: 
  Total number of            - Shell sets:                                  2799
                             - Shells:                                      2799
                             - Primitive Cartesian functions:               3609
                             - Cartesian basis functions:                   7546
                             - Spherical basis functions:                   6985
                               Maximum angular momentum                        3


 SCF PARAMETERS         Density guess:                                   RESTART
                        --------------------------------------------------------
                        max_scf:                                              10
                        max_scf_history:                                       0
                        max_diis:                                              4
                        --------------------------------------------------------
                        eps_scf:                                        1.00E-06
                        eps_scf_history:                                0.00E+00
                        eps_diis:                                       1.00E-01
                        eps_eigval:                                     1.00E-05
                        --------------------------------------------------------
                        level_shift [a.u.]:                             0.000000
                        --------------------------------------------------------
                        Outer loop SCF in use 
                        No variables optimised in outer loop
                        eps_scf                                         1.00E-06
                        max_scf                                               10
                        No outer loop optimization
                        step_size                                       5.00E-01

 Number of electrons:                                                       2056
 Number of occupied orbitals:                                               1028
 Number of molecular orbitals:                                              1028

 Number of orbital functions:                                              11621
 Number of independent orbital functions:                                  11621

 Extrapolation method: initial_guess

 *** WARNING in qs_initial_guess.F:306 :: User requested to restart the   ***
 *** wavefunction from the file named: Replica_32-RESTART.wfn. This file  ***
 *** does not exist. Please check the existence of the file or change     ***
 *** properly the value of the keyword WFN_RESTART_FILE_NAME. Calculation ***
 *** continues using ATOMIC GUESS.                                        ***



 SCF WAVEFUNCTION OPTIMIZATION

  ----------------------------------- OT ---------------------------------------
  Minimizer      : DIIS                : direct inversion
                                         in the iterative subspace
                                         using   7 DIIS vectors
                                         safer DIIS on
  Preconditioner : FULL_SINGLE_INVERSE : inversion of 
                                         H + eS - 2*(Sc)(c^T*H*c+const)(Sc)^T
  Precond_solver : DEFAULT
  stepsize       :    0.08000000                  energy_gap     :    0.08000000
  eps_taylor     :   0.10000E-15                  max_taylor     :             4
  ----------------------------------- OT ---------------------------------------

  Step     Update method      Time    Convergence         Total energy    Change
  ------------------------------------------------------------------------------
     1 OT DIIS     0.80E-01    6.7     0.01139392     -5014.9920445906 -5.01E+03
     2 OT DIIS     0.80E-01    5.2     0.00708072     -5089.7256734603 -7.47E+01
     3 OT DIIS     0.80E-01    5.2     0.00693533     -5124.8574564320 -3.51E+01
     4 OT DIIS     0.80E-01    5.3     0.00612800     -5142.2672178597 -1.74E+01
     5 OT DIIS     0.80E-01    5.2     0.00342887     -5180.3883465403 -3.81E+01
     6 OT DIIS     0.80E-01    5.3     0.00257618     -5192.6703960400 -1.23E+01
     7 OT DIIS     0.80E-01    5.2     0.00193857     -5200.4021126402 -7.73E+00
     8 OT DIIS     0.80E-01    5.3     0.00130680     -5207.0513941497 -6.65E+00
     9 OT DIIS     0.80E-01    5.2     0.00103857     -5209.8282284965 -2.78E+00
    10 OT DIIS     0.80E-01    5.3     0.00074604     -5212.4323611643 -2.60E+00

  Leaving inner SCF loop after reaching    10 steps.


  Electronic density on regular grids:      -2055.9999999665        0.0000000335
  Core density on regular grids:             2055.9999998536       -0.0000001464
  Total charge density on r-space grids:       -0.0000001128
  Total charge density g-space grids:          -0.0000001128

  Overlap energy of the core charge distribution:               0.00004693494620
  Self energy of the core charge distribution:              -9865.05654136270459
  Core Hamiltonian energy:                                   2925.38694646741305
  Hartree energy:                                            2791.39285698171716
  Exchange-correlation energy:                              -1064.15567018566207

  Total energy:                                             -5212.43236116428852

  outer SCF iter =    1 RMS gradient =   0.75E-03 energy =      -5212.4323611643

  ----------------------------------- OT ---------------------------------------
  Minimizer      : DIIS                : direct inversion
                                         in the iterative subspace
                                         using   7 DIIS vectors
                                         safer DIIS on
  Preconditioner : FULL_SINGLE_INVERSE : inversion of 
                                         H + eS - 2*(Sc)(c^T*H*c+const)(Sc)^T
  Precond_solver : DEFAULT
  stepsize       :    0.08000000                  energy_gap     :    0.08000000
  eps_taylor     :   0.10000E-15                  max_taylor     :             4
  ----------------------------------- OT ---------------------------------------

  Step     Update method      Time    Convergence         Total energy    Change
  ------------------------------------------------------------------------------
     1 OT DIIS     0.80E-01   13.3     0.00116427     -5213.7000989212 -1.27E+00
     2 OT DIIS     0.80E-01    5.2     0.00100343     -5214.8964755336 -1.20E+00
     3 OT DIIS     0.80E-01    5.2     0.00066277     -5216.6355840706 -1.74E+00
     4 OT DIIS     0.80E-01    5.2     0.00055122     -5217.1123592722 -4.77E-01
     5 OT DIIS     0.80E-01    5.3     0.00039411     -5217.3557675350 -2.43E-01
     6 OT DIIS     0.80E-01    5.2     0.00023303     -5217.5161502043 -1.60E-01
     7 OT DIIS     0.80E-01    5.3     0.00015970     -5217.5550906967 -3.89E-02
     8 OT DIIS     0.80E-01    5.3     0.00014555     -5217.5691475987 -1.41E-02
     9 OT DIIS     0.80E-01    5.2     0.00009119     -5217.5948380873 -2.57E-02
    10 OT DIIS     0.80E-01    5.3     0.00006121     -5217.6028801677 -8.04E-03

  Leaving inner SCF loop after reaching    10 steps.


  Electronic density on regular grids:      -2055.9999999665        0.0000000335
  Core density on regular grids:             2055.9999998536       -0.0000001464
  Total charge density on r-space grids:       -0.0000001129
  Total charge density g-space grids:          -0.0000001129

  Overlap energy of the core charge distribution:               0.00004693494620
  Self energy of the core charge distribution:              -9865.05654136270459
  Core Hamiltonian energy:                                   2920.35281866018840
  Hartree energy:                                            2791.95934729770715
  Exchange-correlation energy:                              -1064.85855169780280

  Total energy:                                             -5217.60288016766481

  outer SCF iter =    2 RMS gradient =   0.61E-04 energy =      -5217.6028801677

  ----------------------------------- OT ---------------------------------------
  Minimizer      : DIIS                : direct inversion
                                         in the iterative subspace
                                         using   7 DIIS vectors
                                         safer DIIS on
  Preconditioner : FULL_SINGLE_INVERSE : inversion of 
                                         H + eS - 2*(Sc)(c^T*H*c+const)(Sc)^T
  Precond_solver : DEFAULT
  stepsize       :    0.08000000                  energy_gap     :    0.08000000
  eps_taylor     :   0.10000E-15                  max_taylor     :             4
  ----------------------------------- OT ---------------------------------------

  Step     Update method      Time    Convergence         Total energy    Change
  ------------------------------------------------------------------------------
     1 OT DIIS     0.80E-01   13.2     0.00007275     -5217.6061294917 -3.25E-03
     2 OT DIIS     0.80E-01    5.1     0.00005624     -5217.6101106497 -3.98E-03
     3 OT DIIS     0.80E-01    5.1     0.00004717     -5217.6121294313 -2.02E-03
     4 OT DIIS     0.80E-01    5.1     0.00001665     -5217.6148431750 -2.71E-03
     5 OT DIIS     0.80E-01    5.1     0.00000770     -5217.6149939126 -1.51E-04
     6 OT DIIS     0.80E-01    5.1     0.00000505     -5217.6150369875 -4.31E-05
     7 OT DIIS     0.80E-01    5.1     0.00000227     -5217.6150608758 -2.39E-05
     8 OT DIIS     0.80E-01    5.1     0.00000128     -5217.6150647263 -3.85E-06
     9 OT DIIS     0.80E-01    5.1     0.00000078     -5217.6150659069 -1.18E-06

  *** SCF run converged in     9 steps ***


  Electronic density on regular grids:      -2055.9999999844        0.0000000156
  Core density on regular grids:             2055.9999998536       -0.0000001464
  Total charge density on r-space grids:       -0.0000001308
  Total charge density g-space grids:          -0.0000001308

  Overlap energy of the core charge distribution:               0.00004693494620
  Self energy of the core charge distribution:              -9865.05654136270459
  Core Hamiltonian energy:                                   2920.31198147653686
  Hartree energy:                                            2791.98553270245429
  Exchange-correlation energy:                              -1064.85608565810253

  Total energy:                                             -5217.61506590686895

  outer SCF iter =    3 RMS gradient =   0.78E-06 energy =      -5217.6150659069
  outer SCF loop converged in   3 iterations or   29 steps


 ENERGY| Total FORCE_EVAL ( QS ) energy [a.u.]:            -5217.615065906868949

 -------------------------------------------------------------------------------
 -                                                                             -
 -                                DBCSR STATISTICS                             -
 -                                                                             -
 -------------------------------------------------------------------------------
 COUNTER                                    TOTAL       BLAS       SMM       ACC
 flops    14 x     4 x     4               129024       0.0%    100.0%      0.0%     
 flops     4 x     4 x   976               187392       0.0%    100.0%      0.0%     
 flops    41 x     4 x     4               314880       0.0%    100.0%      0.0%     
 flops     4 x     4 x   974               374016       0.0%    100.0%      0.0%     
 flops     4 x     4 x   962               461760       0.0%    100.0%      0.0%     
 flops    29 x     4 x     4              1787328       0.0%    100.0%      0.0%     
 flops    14 x    32 x     4             16515072       0.0%    100.0%      0.0%     
 flops    14 x     4 x    32             16515072       0.0%    100.0%      0.0%     
 flops    32 x     4 x   976             23986176       0.0%    100.0%      0.0%     
 flops     4 x    32 x   976             23986176       0.0%    100.0%      0.0%     
 flops    41 x    32 x     4             40304640       0.0%    100.0%      0.0%     
 flops    41 x     4 x    32             40304640       0.0%    100.0%      0.0%     
 flops    32 x     4 x   974             47874048       0.0%    100.0%      0.0%     
 flops     4 x    32 x   974             47874048       0.0%    100.0%      0.0%     
 flops    32 x     4 x   962             59105280       0.0%    100.0%      0.0%     
 flops     4 x    32 x   962             59105280       0.0%    100.0%      0.0%     
 flops    14 x     4 x    14            108380160       0.0%    100.0%      0.0%     
 flops    68 x    68 x    68            137092352       0.0%    100.0%      0.0%     
 flops    29 x    32 x     4            228777984       0.0%    100.0%      0.0%     
 flops    29 x     4 x    32            228777984       0.0%    100.0%      0.0%     
 flops    41 x    14 x    68            382201344       0.0%    100.0%      0.0%     
 flops    64 x    68 x    68            387084288       0.0%    100.0%      0.0%     
 flops    68 x    64 x    68            387084288       0.0%    100.0%      0.0%     
 flops    68 x    68 x    64            387084288       0.0%    100.0%      0.0%     
 flops    14 x    14 x    68            497081088       0.0%    100.0%      0.0%     
 flops    41 x     4 x    14            507838464       0.0%    100.0%      0.0%     
 flops    14 x     4 x    41            507838464       0.0%    100.0%      0.0%     
 flops    41 x    14 x    64           1079156736       0.0%    100.0%      0.0%     
 flops    64 x    64 x    68           1092943872       0.0%    100.0%      0.0%     
 flops    64 x    68 x    64           1092943872       0.0%    100.0%      0.0%     
 flops    68 x    64 x    64           1092943872       0.0%    100.0%      0.0%     
 flops   963 x    68 x    68           1237909536       0.0%    100.0%      0.0%     
 flops    14 x    14 x    64           1403523072       0.0%    100.0%      0.0%     
 flops    41 x     4 x    41           1541463552       0.0%    100.0%      0.0%     
 flops    68 x    68 x    96           1548337152       0.0%    100.0%      0.0%     
 flops    68 x    96 x    68           1548337152       0.0%    100.0%      0.0%     
 flops    96 x    68 x    68           1548337152       0.0%    100.0%      0.0%     
 flops    14 x     4 x    29           1677682944       0.0%    100.0%      0.0%     
 flops    29 x     4 x    14           1677682944       0.0%    100.0%      0.0%     
 flops    68 x    68 x   976           2039886848       0.0%    100.0%      0.0%     
 flops   976 x    68 x    68           2509241344       0.0%    100.0%      0.0%     
 flops    64 x    64 x    64           3085959168       0.0%    100.0%      0.0%     
 flops   963 x    64 x    68           3495273984       0.0%    100.0%      0.0%     
 flops   963 x    68 x    64           3495273984       0.0%    100.0%      0.0%     
 flops    14 x    41 x    68           3664636416       0.0%    100.0%      0.0%     
 flops    68 x    68 x   974           4071413504       0.0%    100.0%      0.0%     
 flops    41 x    14 x    96           4316626944       0.0%    100.0%      0.0%     
 flops    14 x    32 x    32           4359979008       0.0%    100.0%      0.0%     
 flops    64 x    68 x    96           4371775488       0.0%    100.0%      0.0%     
 flops    64 x    96 x    68           4371775488       0.0%    100.0%      0.0%     
 flops    68 x    64 x    96           4371775488       0.0%    100.0%      0.0%     
 flops    68 x    96 x    64           4371775488       0.0%    100.0%      0.0%     
 flops    96 x    64 x    68           4371775488       0.0%    100.0%      0.0%     
 flops    96 x    68 x    64           4371775488       0.0%    100.0%      0.0%     
 flops   974 x    68 x    68           5008198912       0.0%    100.0%      0.0%     
 flops    68 x    68 x   962           5026565440       0.0%    100.0%      0.0%     
 flops    14 x    14 x    96           5614092288       0.0%    100.0%      0.0%     
 flops    64 x    68 x   976           5759680512       0.0%    100.0%      0.0%     
 flops    68 x    64 x   976           5759680512       0.0%    100.0%      0.0%     
 flops    41 x    41 x    68           6158915040       0.0%    100.0%      0.0%     
 flops   962 x    68 x    68           6183120320       0.0%    100.0%      0.0%     
 flops    14 x    29 x    68           6197885568       0.0%    100.0%      0.0%     
 flops    32 x    32 x   976           6332350464       0.0%    100.0%      0.0%     
 flops   976 x    64 x    68           7084916736       0.0%    100.0%      0.0%     
 flops   976 x    68 x    64           7084916736       0.0%    100.0%      0.0%     
 flops   963 x    68 x   976           8180785152       0.0%    100.0%      0.0%     
 flops    41 x     4 x    29           8199191808       0.0%    100.0%      0.0%     
 flops    29 x     4 x    41           8199191808       0.0%    100.0%      0.0%     
 flops    29 x    14 x    68           8238006336       0.0%    100.0%      0.0%     
 flops   963 x    64 x    64           9869008896       0.0%    100.0%      0.0%     
 flops    14 x    41 x    64          10347208704       0.0%    100.0%      0.0%     
 flops    41 x    32 x    32          10640424960       0.0%    100.0%      0.0%     
 flops    64 x    68 x   974          11495755776       0.0%    100.0%      0.0%     
 flops    68 x    64 x   974          11495755776       0.0%    100.0%      0.0%     
 flops    64 x    64 x    96          12343836672       0.0%    100.0%      0.0%     
 flops    64 x    96 x    64          12343836672       0.0%    100.0%      0.0%     
 flops    96 x    64 x    64          12343836672       0.0%    100.0%      0.0%     
 flops    32 x    32 x   974          12638748672       0.0%    100.0%      0.0%     
 flops   963 x    68 x    96          13981095936       0.0%    100.0%      0.0%     
 flops   963 x    96 x    68          13981095936       0.0%    100.0%      0.0%     
 flops   974 x    64 x    68          14140796928       0.0%    100.0%      0.0%     
 flops   974 x    68 x    64          14140796928       0.0%    100.0%      0.0%     
 flops    64 x    68 x   962          14192655360       0.0%    100.0%      0.0%     
 flops    68 x    64 x   962          14192655360       0.0%    100.0%      0.0%     
 flops    32 x    32 x   962          15603793920       0.0%    100.0%      0.0%     
 flops    64 x    64 x   976          16262627328       0.0%    100.0%      0.0%     
 flops   963 x    68 x   974          16328042496       0.0%    100.0%      0.0%     
 flops   976 x    68 x   976          16582443008       0.0%    100.0%      0.0%     
 flops    41 x    41 x    64          17389877760       0.0%    100.0%      0.0%     
 flops   962 x    64 x    68          17458222080       0.0%    100.0%      0.0%     
 flops   962 x    68 x    64          17458222080       0.0%    100.0%      0.0%     
 flops    96 x    96 x    68          17487101952       0.0%    100.0%      0.0%     
 flops    68 x    96 x    96          17487101952       0.0%    100.0%      0.0%     
 flops    96 x    68 x    96          17487101952       0.0%    100.0%      0.0%     
 flops    14 x    29 x    64          17499912192       0.0%    100.0%      0.0%     
 flops   976 x    64 x    64          20004470784       0.0%    100.0%      0.0%     
 flops   963 x    68 x   962          20158594560       0.0%    100.0%      0.0%     
 flops    68 x    96 x   976          23038722048       0.0%    100.0%      0.0%     
 flops    96 x    68 x   976          23038722048       0.0%    100.0%      0.0%     
 flops   963 x    64 x   976          23098687488       0.0%    100.0%      0.0%     
 flops    29 x    14 x    64          23260253184       0.0%    100.0%      0.0%     
 flops    29 x    41 x    68          27361287024       0.0%    100.0%      0.0%     
 flops    14 x    32 x    14          27745320960       0.0%    100.0%      0.0%     
 flops   976 x    68 x    96          28339666944       0.0%    100.0%      0.0%     
 flops   976 x    96 x    68          28339666944       0.0%    100.0%      0.0%     
 flops    29 x     4 x    29          29253397824       0.0%    100.0%      0.0%     
 flops    64 x    64 x   974          32458604544       0.0%    100.0%      0.0%     
 flops   976 x    68 x   974          33096925184       0.0%    100.0%      0.0%     
 flops   974 x    68 x   976          33096925184       0.0%    100.0%      0.0%     
 flops    41 x    29 x    68          36945159696       0.0%    100.0%      0.0%     
 flops   963 x    64 x    96          39476035584       0.0%    100.0%      0.0%     
 flops   963 x    96 x    64          39476035584       0.0%    100.0%      0.0%     
 flops   974 x    64 x    64          39926956032       0.0%    100.0%      0.0%     
 flops    64 x    64 x   962          40073379840       0.0%    100.0%      0.0%     
 flops   976 x    68 x   962          40861450240       0.0%    100.0%      0.0%     
 flops   962 x    68 x   976          40861450240       0.0%    100.0%      0.0%     
 flops    14 x    41 x    96          41388834816       0.0%    100.0%      0.0%     
 flops    68 x    96 x   974          45983023104       0.0%    100.0%      0.0%     
 flops    96 x    68 x   974          45983023104       0.0%    100.0%      0.0%     
 flops   963 x    64 x   974          46102708224       0.0%    100.0%      0.0%     
 flops   976 x    64 x   976          46821015552       0.0%    100.0%      0.0%     
 flops   962 x    64 x    64          49293803520       0.0%    100.0%      0.0%     
 flops    96 x    96 x    64          49375346688       0.0%    100.0%      0.0%     
 flops    64 x    96 x    96          49375346688       0.0%    100.0%      0.0%     
 flops    96 x    64 x    96          49375346688       0.0%    100.0%      0.0%     
 flops   974 x    96 x    68          56563187712       0.0%    100.0%      0.0%     
 flops   974 x    68 x    96          56563187712       0.0%    100.0%      0.0%     
 flops    68 x    96 x   962          56770621440       0.0%    100.0%      0.0%     
 flops    96 x    68 x   962          56770621440       0.0%    100.0%      0.0%     
 flops   963 x    64 x   962          56918384640       0.0%    100.0%      0.0%     
 flops    29 x    32 x    32          60397387776       0.0%    100.0%      0.0%     
 flops    64 x    96 x   976          65050509312       0.0%    100.0%      0.0%     
 flops    96 x    64 x   976          65050509312       0.0%    100.0%      0.0%     
 flops   974 x    68 x   974          66058207232       0.0%    100.0%      0.0%     
 flops    41 x    41 x    96          69559511040       0.0%    100.0%      0.0%     
 flops   962 x    68 x    96          69832888320       0.0%    100.0%      0.0%     
 flops   962 x    96 x    68          69832888320       0.0%    100.0%      0.0%     
 flops    14 x    29 x    96          69999648768       0.0%    100.0%      0.0%     
 flops    29 x    41 x    64          77255398656       0.0%    100.0%      0.0%     
 flops   976 x    64 x    96          80017883136       0.0%    100.0%      0.0%     
 flops   976 x    96 x    64          80017883136       0.0%    100.0%      0.0%     
 flops   962 x    68 x   974          81555435520       0.0%    100.0%      0.0%     
 flops   974 x    68 x   962          81555435520       0.0%    100.0%      0.0%     
 flops   963 x    96 x   976          92394749952       0.0%    100.0%      0.0%     
 flops    29 x    14 x    96          93041012736       0.0%    100.0%      0.0%     
 flops   976 x    64 x   974          93450141696       0.0%    100.0%      0.0%     
 flops   974 x    64 x   976          93450141696       0.0%    100.0%      0.0%     
 flops   962 x    68 x   962         100688307200       0.0%    100.0%      0.0%     
 flops    41 x    29 x    64         104315745024       0.0%    100.0%      0.0%     
 flops   976 x    64 x   962         115373506560       0.0%    100.0%      0.0%     
 flops   962 x    64 x   976         115373506560       0.0%    100.0%      0.0%     
 flops    29 x    29 x    68         121889702568       0.0%    100.0%      0.0%     
 flops    64 x    96 x   974         129834418176       0.0%    100.0%      0.0%     
 flops    96 x    64 x   974         129834418176       0.0%    100.0%      0.0%     
 flops    41 x    32 x    14         130006646784       0.0%    100.0%      0.0%     
 flops    14 x    32 x    41         130006646784       0.0%    100.0%      0.0%     
 flops   963 x    96 x    96         157904142336       0.0%    100.0%      0.0%     
 flops   974 x    96 x    64         159707824128       0.0%    100.0%      0.0%     
 flops   974 x    64 x    96         159707824128       0.0%    100.0%      0.0%     
 flops    64 x    96 x   962         160293519360       0.0%    100.0%      0.0%     
 flops    96 x    64 x   962         160293519360       0.0%    100.0%      0.0%     
 flops   963 x    96 x   974         184410832896       0.0%    100.0%      0.0%     
 flops   974 x    64 x   974         186517291008       0.0%    100.0%      0.0%     
 flops   976 x    96 x   976         187284062208       0.0%    100.0%      0.0%     
 flops   962 x    64 x    96         197175214080       0.0%    100.0%      0.0%     
 flops   962 x    96 x    64         197175214080       0.0%    100.0%      0.0%     
 flops    96 x    96 x    96         197501386752       0.0%    100.0%      0.0%     
 flops   963 x    96 x   962         227673538560       0.0%    100.0%      0.0%     
 flops   962 x    64 x   974         230274170880       0.0%    100.0%      0.0%     
 flops   974 x    64 x   962         230274170880       0.0%    100.0%      0.0%     
 flops    96 x    96 x   976         260202037248       0.0%    100.0%      0.0%     
 flops   962 x    64 x   962         284296396800       0.0%    100.0%      0.0%     
 flops    29 x    41 x    96         309021594624       0.0%    100.0%      0.0%     
 flops   976 x    96 x    96         320071532544       0.0%    100.0%      0.0%     
 flops    29 x    29 x    64         344159160192       0.0%    100.0%      0.0%     
 flops   974 x    96 x   976         373800566784       0.0%    100.0%      0.0%     
 flops   976 x    96 x   974         373800566784       0.0%    100.0%      0.0%     
 flops    41 x    32 x    41         394614669312       0.0%    100.0%      0.0%     
 flops    41 x    29 x    96         417262980096       0.0%    100.0%      0.0%     
 flops    14 x    32 x    29         429486833664       0.0%    100.0%      0.0%     
 flops    29 x    32 x    14         429486833664       0.0%    100.0%      0.0%     
 flops   976 x    96 x   962         461494026240       0.0%    100.0%      0.0%     
 flops   962 x    96 x   976         461494026240       0.0%    100.0%      0.0%     
 flops    96 x    96 x   974         519337672704       0.0%    100.0%      0.0%     
 flops   974 x    96 x    96         638831296512       0.0%    100.0%      0.0%     
 flops    96 x    96 x   962         641174077440       0.0%    100.0%      0.0%     
 flops   974 x    96 x   974         746069164032       0.0%    100.0%      0.0%     
 flops   962 x    96 x    96         788700856320       0.0%    100.0%      0.0%     
 flops   974 x    96 x   962         921096683520       0.0%    100.0%      0.0%     
 flops   962 x    96 x   974         921096683520       0.0%    100.0%      0.0%     
 flops   962 x    96 x   962        1137185587200       0.0%    100.0%      0.0%     
 flops    29 x    29 x    96        1376636640768       0.0%    100.0%      0.0%     
 flops    41 x    32 x    29        2098993102848       0.0%    100.0%      0.0%     
 flops    29 x    32 x    41        2098993102848       0.0%    100.0%      0.0%     
 flops    29 x    32 x    29        7488869842944       0.0%    100.0%      0.0%     
 flops inhomo. stacks                982684428800     100.0%      0.0%      0.0%
 flops total                        32.150259E+12       3.1%     96.9%      0.0%
 flops max/rank                    257.130980E+09       3.1%     96.9%      0.0%
 matmuls inhomo. stacks                     22563     100.0%      0.0%      0.0%
 matmuls total                          271959966       0.0%    100.0%      0.0%
 number of processed stacks               2661045       0.8%     99.2%      0.0%
 average stack size                                     1.1     103.0       0.0
 marketing flops                    44.997135E+12
 -------------------------------------------------------------------------------
 # multiplications                            619
 max memory usage/rank             591.847424E+06
 # max total images/rank                        1
 # max 3D layers                                1
 # MPI messages exchanged                 1960992
 MPI messages size (bytes):
  total size                         1.577498E+12
  min size                           0.000000E+00
  max size                           7.620608E+06
  average size                     804.438812E+03
 MPI breakdown and total messages size (bytes):
             size <=      128               13860                        0
       128 < size <=     8192                   0                        0
      8192 < size <=    32768               57618               1883705472
     32768 < size <=   131072              858330              51877210880
    131072 < size <=  4194304              866448             575051332768
   4194304 < size <= 16777216              164736             948693504704
  16777216 < size                               0                        0
 -------------------------------------------------------------------------------
 -                                                                             -
 -                      DBCSR MESSAGE PASSING PERFORMANCE                      -
 -                                                                             -
 -------------------------------------------------------------------------------
 ROUTINE             CALLS      AVE VOLUME [Bytes]
 MP_Bcast              196                     12.
 MP_Allreduce         3676                     33.
 MP_Alltoall          2257                 157039.
 MP_ISend            29700                 380508.
 MP_IRecv            29700                 378125.
 -------------------------------------------------------------------------------

 -------------------------------------------------------------------------------
 -                                                                             -
 -                                DBM STATISTICS                               -
 -                                                                             -
 -------------------------------------------------------------------------------
    M  x    N  x    K                                          COUNT     PERCENT
 -------------------------------------------------------------------------------

 -------------------------------------------------------------------------------
 -                                                                             -
 -                                GRID STATISTICS                              -
 -                                                                             -
 -------------------------------------------------------------------------------
 LP    KERNEL             BACKEND                              COUNT     PERCENT
 6     collocate ortho    CPU                                7985550      21.55%
 8     collocate ortho    CPU                                7893390      21.31%
 6     integrate ortho    CPU                                7719365      20.84%
 8     integrate ortho    CPU                                7630277      20.60%
 5     collocate ortho    CPU                                1418520       3.83%
 7     collocate ortho    CPU                                1418520       3.83%
 5     integrate ortho    CPU                                1371236       3.70%
 7     integrate ortho    CPU                                1371236       3.70%
 4     collocate ortho    CPU                                  92160       0.25%
 4     integrate ortho    CPU                                  89088       0.24%
 0     collocate general  CPU                                  58896       0.16%
 -------------------------------------------------------------------------------

 MEMORY| Estimated peak process memory [MiB]                                 565

 -------------------------------------------------------------------------------
 -                                                                             -
 -                         MESSAGE PASSING PERFORMANCE                         -
 -                                                                             -
 -------------------------------------------------------------------------------

 ROUTINE             CALLS      AVE VOLUME [Bytes]
 MP_Group                4
 MP_Bcast             3699                3985371.
 MP_Allreduce         8382                   2626.
 MP_Sync                24
 MP_Alltoall          1016               15908525.
 MP_SendRecv         17160                  98624.
 MP_ISendRecv        16588                  98624.
 MP_Wait             27490
 MP_comm_split          20
 MP_ISend             9954                 527381.
 MP_IRecv             9954                 527412.
 -------------------------------------------------------------------------------


 -------------------------------------------------------------------------------
 -                                                                             -
 -                           R E F E R E N C E S                               -
 -                                                                             -
 -------------------------------------------------------------------------------
 
 CP2K version 2024.2 (Development Version), the CP2K developers group (2024).
 CP2K is freely available from https://www.cp2k.org/ .
 
 T. D. Kuehne, M. Iannuzzi, M. Del Ben, V. V. Rybkin, P. Seewald, F. Stein, T. 
 Laino, R. Z. Khaliullin, O. Schuett, F. Schiffmann, D. Golze, J. Wilhelm, S. 
 Chulkov, M. H. Bani-Hashemian, V. Weber, U. Borstnik, M. Taillefumier, A. S. 
 Jakobovits, A. Lazzaro, H. Pabst, T. Mueller, R. Schade, M. Guidon, S. 
 Andermatt, N. Holmberg, G. K. Schenter, A. Hehn, A. Bussy, F. Belleflamme, G. 
 Tabacchi, A. Gloess, M. Lass, I. Bethune, C. J. Mundy, C. Plessl, M. Watkins, 
 J. VandeVondele, M. Krack, J. Hutter.
 J. Chem. Phys. 152, 194103 (2020).
 CP2K: An electronic structure and molecular dynamics software package - 
 Quickstep: Efficient and accurate electronic structure calculations.
 https://doi.org/10.1063/5.0007045

 S. Lehtola, C. Steigemann, M. J. T. Oliveira, M. A. L. Marques.
 SoftwareX 7, 1-5 (2018).
 Recent developments in libxc - A comprehensive library of functionals for 
 density functional theory.
 https://doi.org/10.1016/j.softx.2017.11.002

 O. Schuett, P. Messmer, J. Hutter, J. VandeVondele.
 Electronic Structure Calculations on Graphics Processing Units, 173-190 (2016).
 GPU-Accelerated Sparse Matrix-Matrix Multiplication for Linear Scaling Density 
 Functional Theory.
 https://doi.org/10.1002/9781118670712.ch8

 A. Heinecke, G. Henry, M. Hutchinson, H. Pabst.
 Proceedings of Intl. Supercomputing Conference, 981-991 (2016).
 LIBXSMM: Accelerating Small Matrix Multiplications by Runtime Code Generation.
 https://doi.org/10.1109/SC.2016.83

 J. Hutter, M. Iannuzzi, F. Schiffmann, J. VandeVondele.
 WIREs Comput Mol Sci. 4, 15-25 (2014).
 CP2K: atomistic simulations of condensed matter systems.
 https://doi.org/10.1002/wcms.1159

 U. Borstnik, J. VandeVondele, V. Weber, J. Hutter.
 Parallel Comput. 40, 47-58 (2014).
 Sparse matrix multiplication: The distributed block-compressed sparse row 
 library.
 https://doi.org/10.1016/j.parco.2014.03.012

 M. A. L. Marques, M. J. T. Oliveira, T. Burnus.
 Comput. Phys. Commun. 183, 2272-2281 (2012).
 LIBXC: A library of exchange and correlation functionals for density functional 
 theory.
 https://doi.org/10.1016/j.cpc.2012.05.007

 J. VandeVondele, J. Hutter.
 J. Chem. Phys. 127, 114105 (2007).
 Gaussian basis sets for accurate calculations on molecular systems in gas and 
 condensed phases.
 https://doi.org/10.1063/1.2770708

 J. VandeVondele, M. Krack, F. Mohamed, M. Parrinello, T. Chassaing, J. Hutter.
 Comput. Phys. Commun. 167, 103-128 (2005).
 QUICKSTEP: Fast and accurate density functional calculations using a mixed 
 Gaussian and plane waves approach.
 https://doi.org/10.1016/j.cpc.2004.12.014

 M. Krack.
 Theor. Chem. Acc. 114, 145-152 (2005).
 Pseudopotentials for H to Kr optimized for gradient-corrected 
 exchange-correlation functionals.
 https://doi.org/10.1007/s00214-005-0655-y

 M. Frigo, S. G. Johnson.
 Proc. IEEE 93, 216-231 (2005).
 The design and implementation of FFTW3.
 https://doi.org/10.1109/JPROC.2004.840301

 J. VandeVondele, J. Hutter.
 J. Chem. Phys. 118, 4365-4369 (2003).
 An efficient orbital transformation method for electronic structure 
 calculations.
 https://doi.org/10.1063/1.1543154

 C. Hartwigsen, S. Goedecker, J. Hutter.
 Phys. Rev. B 58, 3641-3662 (1998).
 Relativistic separable dual-space Gaussian pseudopotentials from H to Rn.
 https://doi.org/10.1103/PhysRevB.58.3641

 G. Lippert, J. Hutter, M. Parrinello.
 Mol. Phys. 92, 477-487 (1997).
 A hybrid Gaussian and plane wave density functional scheme.
 https://doi.org/10.1080/002689797170220

 S. Goedecker, M. Teter, J. Hutter.
 Phys. Rev. B 54, 1703-1710 (1996).
 Separable dual-space Gaussian pseudopotentials.
 https://doi.org/10.1103/PhysRevB.54.1703


 -------------------------------------------------------------------------------
 -                                                                             -
 -                                T I M I N G                                  -
 -                                                                             -
 -------------------------------------------------------------------------------
 SUBROUTINE                       CALLS  ASD         SELF TIME        TOTAL TIME
                                MAXIMUM       AVERAGE  MAXIMUM  AVERAGE  MAXIMUM
 CP2K                                 1  1.0    0.016    0.037  163.983  163.983
 qs_energies                          1  2.0    0.006    0.010  162.316  162.319
 scf_env_do_scf                       1  3.0    0.000    0.000  159.611  159.612
 scf_env_do_scf_inner_loop           29  4.0    0.001    0.012  142.043  142.301
 qs_ks_update_qs_env                 32  5.0    0.000    0.000   89.806   89.951
 rebuild_ks_matrix                   29  6.0    0.000    0.000   89.732   89.879
 qs_ks_build_kohn_sham_matrix        29  7.0    0.004    0.005   89.732   89.879
 sum_up_and_integrate                29  8.0    0.001    0.002   45.310   45.315
 qs_rho_update_rho_low               30  5.0    0.000    0.000   45.244   45.260
 calculate_rho_elec                  60  6.0    0.135    0.140   45.244   45.260
 integrate_v_rspace                  58  9.0    0.002    0.003   45.123   45.128
 fft_wrap_pw1pw2                    765  9.9    0.016    0.024   36.840   38.143
 qs_vxc_create                       29  8.0    0.001    0.001   36.638   36.656
 xc_vxc_pw_create                    29  9.0    0.264    0.330   36.637   36.656
 fft_wrap_pw1pw2_500                411 11.3    1.564    1.603   34.862   36.206
 fft3d_ps                           765 11.9   13.496   13.818   28.327   29.646
 grid_integrate_task_list            58 10.0   27.736   29.116   27.736   29.116
 grid_collocate_task_list            60  7.0   24.214   25.831   24.214   25.831
 xc_rho_set_and_dset_create          29 10.0    0.271    0.325   24.303   24.697
 density_rs2pw                       60  7.0    0.004    0.005   20.387   21.989
 dbcsr_multiply_generic             619 10.0    0.034    0.038   19.070   19.436
 xc_pw_derive                       174 11.0    0.004    0.004   17.253   18.598
 qs_scf_new_mos                      29  5.0    0.000    0.000   17.753   18.056
 qs_scf_loop_do_ot                   29  6.0    0.000    0.000   17.753   18.056
 init_scf_loop                        3  4.0    0.000    0.000   17.438   17.449
 ot_scf_mini                         29  7.0    0.001    0.001   16.464   16.718
 multiply_cannon                    619 11.0    0.049    0.059   15.236   16.059
 xc_functional_eval                  58 11.0    0.001    0.001   15.369   15.719
 libxc_lda_eval                      58 12.0   15.367   15.718   15.368   15.718
 potential_pw2rs                     58 10.0    0.011    0.012   15.358   15.384
 multiply_cannon_loop               619 12.0    0.066    0.072   14.248   15.061
 xc_pw_divergence                    29 10.0    0.002    0.002   11.822   13.105
 mp_alltoall_z22v                   765 13.9   10.514   11.708   10.514   11.708
 multiply_cannon_multrec           7428 13.0    9.204   10.554    9.208   10.559
 transfer_rs2pw                     241  8.0    0.004    0.006    8.752   10.376
 mp_waitall_1                     86864 13.9    6.989    9.242    6.989    9.242
 transfer_pw2rs                     232 11.0    0.003    0.004    9.165    9.177
 ot_mini                             29  8.0    0.000    0.000    8.889    9.173
 yz_to_x                            326 12.6    2.036    2.352    7.555    8.890
 mp_waitany                        9954 11.5    6.056    7.560    6.056    7.560
 x_to_yz                            321 13.4    2.203    2.263    7.193    7.371
 prepare_preconditioner               3  5.0    0.000    0.000    7.331    7.366
 make_preconditioner                  3  6.0    0.000    0.000    7.331    7.366
 transfer_rs2pw_500                  61  9.0    1.980    2.611    5.060    6.742
 transfer_pw2rs_500                  58 12.0    2.190    2.496    5.339    5.717
 apply_preconditioner_dbcsr          32 10.0    0.000    0.000    4.518    4.708
 apply_single                        32 11.0    0.000    0.000    4.518    4.708
 qs_ot_get_derivative                29  9.0    0.000    0.000    4.406    4.672
 make_full_inverse_cholesky           3  7.0    0.000    0.000    4.448    4.498
 ot_diis_step                        29  9.0    0.002    0.002    4.458    4.458
 multiply_cannon_metrocomm3        7428 13.0    0.021    0.025    0.997    4.292
 qs_ot_get_p                         32  7.8    0.000    0.000    3.947    4.282
 multiply_cannon_metrocomm1        7428 13.0    0.028    0.030    3.192    4.230
 mp_alltoall_d11v                   589 11.6    2.587    4.153    2.587    4.153
 rs_gather_matrices                  58 10.0    0.124    0.147    2.025    3.657
 -------------------------------------------------------------------------------

 The number of warnings for this run is : 1
 
 -------------------------------------------------------------------------------
  **** **** ******  **  PROGRAM ENDED AT                 2024-09-13 03:38:26.476
 ***** ** ***  *** **   PROGRAM RAN ON                                  nid03788
 **    ****   ******    PROGRAM RAN BY                                  bsertcan
 ***** **    ** ** **   PROGRAM PROCESS ID                                  3027
  **** **  *******  **  PROGRAM STOPPED IN /scratch/snx3000/bsertcan/MFU_sp/rsca
                                           n/cl/kr/rep32
