     409
 i =      56, E =    -5133.8805476086
  N         3.0118103997        5.2218015918       16.0494863001
  C         1.6919918056        5.4876798262       16.3116762514
  N        13.7902730450        5.2024810547        5.2024815531
  C        12.4740267276        5.4776545590        5.4776550556
  N        19.7179059493       17.5762416942       16.0200328440
  C        21.0356070067       17.3173729450       16.3015662381
  N         8.8726829547       17.6076638164        5.2289451390
  C        10.1903050248       17.3271661251        5.4898206339
  N        19.6546751107        5.2008668391        6.7568000346
  C        20.9722353806        5.4849611342        6.5006635286
  N         8.8726823084        5.2289458097       17.6076641714
  C        10.1903045071        5.4898213186       17.3271667541
  N         2.9992013236       17.5990070086        6.7826450607
  C         1.6835244525       17.3247317853        6.5057815561
  N        13.8629522994       17.5771451941       17.5771450225
  C        12.5442192158       17.3110836669       17.3110830454
  N        15.9433937495        3.0406679808        5.1966730274
  C        16.2194332223        1.7235924729        5.4655395400
  N        16.0069672269       13.8650110236       16.0164368516
  C        16.2732634675       12.5469207611       16.2867224497
  N        16.0127335256       19.7250742217       17.5728540500
  C        16.2753789752       21.0430636710       17.2992188470
  N        15.9552698568        8.9097981534        6.7551650148
  C        16.2303273061       10.2265664654        6.4851176980
  N         6.7091480690       19.7657541654        5.2405909315
  C         6.4282183275       21.0818174273        5.5081657311
  N         6.7202987321        8.9366372138       16.0512796797
  C         6.4549904268       10.2551466732       16.3217638814
  N         6.7228390542        3.0790988150       17.6181450354
  C         6.4606711928        1.7600002953       17.3461174798
  N         6.7105645716       13.8956372614        6.7868700347
  C         6.4313896872       12.5786059171        6.5221740794
  N         5.1698138826       16.0598546671        3.0726346313
  C         5.4455893184       16.3298572718        1.7561154257
  N         5.1565563821        5.2300343251       13.9000505346
  C         5.4158916024        5.5063298323       12.5816921537
  N        17.5640013296       16.0129634337       19.7287932538
  C        17.2884810067       16.2810987800       21.0460136169
  N        17.5056486676        5.1948041386        8.9044851754
  C        17.2431942030        5.4667487396       10.2228744983
  N         5.1494106235        6.7927052145       19.7566491682
  C         5.4109294546        6.5223421321       21.0762797706
  N         5.1601515763       17.6029504725        8.9410024396
  C         5.4375247770       17.3358237205       10.2581539364
  N        17.5008474118        6.7508446080        3.0457318727
  C        17.2359495524        6.4804104430        1.7275600523
  N        17.5642839426       17.5711402717       13.8614160395
  C        17.2895107482       17.3019625833       12.5443097131
  N         5.1195247390        3.0760774615        6.7905797401
  C         5.3950857611        1.7586145155        6.5214749973
  N         5.1825119295       13.8983199318       17.6070307363
  C         5.4483514115       12.5797364964       17.3373334734
  N        17.5291884810       19.7309721949        6.7481829947
  C        17.2506270542       21.0470769010        6.4794186545
  N        17.5394393416        8.9049412647       17.5783435444
  C        17.2770755293       10.2232443419       17.3050762584
  N         5.1943841325       19.7571578493       16.0541611195
  C         5.4588717986       21.0751033397       16.3270322909
  N         5.1300381956        8.9437433168        5.2386713129
  C         5.4029870672       10.2605960843        5.5103156024
  N        17.5401928009        3.0460783172       16.0089291584
  C        17.2758276418        1.7273776807       16.2791543328
  N        17.5352654062       13.8603362115        5.2012665866
  C        17.2577557274       12.5436333774        5.4691000842
  N         3.0343637141       16.0567772630       17.6119655865
  C         1.7167542311       16.3198891832       17.3354424335
  N        13.8291354949       16.0189472116        6.7570787961
  C        12.5113883349       16.2951520738        6.4921412031
  N        19.6946699679       16.0203971382        5.2020543893
  C        21.0105854989       16.2970779442        5.4768345518
  N         8.8965479703       16.0403957120       16.0403949728
  C        10.2163025962       16.3052185275       16.3052177669
  N        19.6832800205        6.7553960628       17.5795674188
  C        21.0025533120        6.4917739999       17.3136439252
  N         8.8439126834        6.7789877171        6.7789876843
  C        10.1598150445        6.5040313863        6.5040316014
  N         2.9713634546        6.7971571125        5.2412337175
  C         1.6535926295        6.5211257966        5.5053591041
  N        13.8291351069        6.7570789887       16.0189476146
  C        12.5113876152        6.4921417416       16.2951525061
  N        15.9756786433        5.1907269044       19.7231428601
  C        16.2355781602        5.4632305033       21.0422089790
  N        15.9868070434       16.0201773407        8.9092504830
  C        16.2625754524       16.2884014836       10.2261217907
  N        15.9851782111       17.5654557635        3.0402808220
  C        16.2612794712       17.2959499994        1.7237499124
  N        15.9803346850        6.7579415973       13.8659053625
  C        16.2431784253        6.4859753432       12.5474390874
  N         6.6731504965        5.2331723855        3.0808080420
  C         6.4100683951        5.5051589329        1.7626567239
  N         6.7363767594       16.0499200164       13.8935179737
  C         6.4634360302       16.3211159010       12.5765467229
  N         6.7548422359       17.6056194753       19.7599074849
  C         6.4767953406       17.3406129607       21.0776722961
  N         6.6894441701        6.7907446398        8.9385300861
  C         6.4205023648        6.5242324888       10.2571712545
  N        19.6832806742       17.5795670629        6.7553958369
  C        21.0025536362       17.3136436592        6.4917733522
  N         8.9074334763       17.5957574704       17.5957560782
  C        10.2233686853       17.3208897876       17.3208885433
  N         2.9713634471        5.2412326859        6.7971568079
  C         1.6535926480        5.5053582787        6.5211256748
  N        13.8296286852        5.1980454583       17.5718886516
  C        12.5118322444        5.4756072414       17.3100322141
  N         3.0343636167       17.6119665153       16.0567770633
  C         1.7167541834       17.3354431500       16.3198890235
  N        13.8296293100       17.5718877290        5.1980450887
  C        12.5118330482       17.3100313009        5.4756067394
  N        19.6946695570        5.2020537774       16.0203980165
  C        21.0105852626        5.4768345062       16.2970784683
  N         8.8325830013        5.2240649053        5.2240649736
  C        10.1523007732        5.4885304117        5.4885307164
  N         6.7548417536       19.7599082335       17.6056194454
  C         6.4767944978       21.0776731563       17.3406134160
  N         6.6894441503        8.9385299822        6.7907449049
  C         6.4205023969       10.2571710699        6.5242326806
  N         6.6731506822        3.0808080633        5.2331720599
  C         6.4100686944        1.7626567509        5.5051584852
  N         6.7363768519       13.8935187921       16.0499187714
  C         6.4634360265       12.5765474828       16.3211146728
  N        15.9851769616        3.0402808947       17.5654564222
  C        16.2612785076        1.7237498657       17.2959506953
  N        15.9803349637       13.8659048673        6.7579417411
  C        16.2431781985       12.5474386169        6.4859751196
  N        15.9756789756       19.7231422889        5.1907274535
  C        16.2355778997       21.0422082024        5.4632316291
  N        15.9868064451        8.9092503621       16.0201775775
  C        16.2625751193       10.2261218053       16.2884014212
  N        17.5291883539        6.7481826178       19.7309726999
  C        17.2506275232        6.4794177713       21.0470777106
  N        17.5394400122       17.5783430529        8.9049413366
  C        17.2770758603       17.3050761552       10.2232443026
  N         5.1195241395        6.7905797282        3.0760777225
  C         5.3950851100        6.5214752972        1.7586146083
  N         5.1825119519       17.6070320328       13.8983189755
  C         5.4483515747       17.3373346499       12.5797356438
  N        17.5401935335       16.0089283635        3.0460780112
  C        17.2758282319       16.2791535729        1.7273775446
  N        17.5352652320        5.2012664900       13.8603367902
  C        17.2577559282        5.4691003830       12.5436339548
  N         5.1943847770       16.0541610738       19.7571570121
  C         5.4588728461       16.3270317803       21.0751024596
  N         5.1300382727        5.2386708680        8.9437434220
  C         5.4029870642        5.5103152355       10.2605962447
  N        17.5640011047       19.7287935300       16.0129638699
  C        17.2884806807       21.0460137563       16.2810993707
  N        17.5056481281        8.9044845083        5.1948037815
  C        17.2431937071       10.2228740236        5.4667481827
  N         5.1698123596        3.0726355588       16.0598557466
  C         5.4455877763        1.7561162328       16.3298582638
  N         5.1565565878       13.9000503434        5.2300342195
  C         5.4158917520       12.5816921139        5.5063299636
  N        17.5008465487        3.0457312569        6.7508463537
  C        17.2359485888        1.7275594592        6.4804120602
  N        17.5642839879       13.8614159978       17.5711399547
  C        17.2895107162       12.5443097715       17.3019622912
  N         5.1494112578       19.7566491003        6.7927043450
  C         5.4109302159       21.0762794964        6.5223413994
  N         5.1601514122        8.9410033399       17.6029500839
  C         5.4375244881       10.2581549688       17.3358230328
  N        19.6546750911        6.7568002456        5.2008680396
  C        20.9722354090        6.5006635642        5.4849620504
  N         8.8718247944        6.7787628643       16.0460205374
  C        10.1897669983        6.5028694276       16.3088168589
  N         2.9992008797        6.7826466655       17.5990066611
  C         1.6835238876        6.5057829343       17.3247317140
  N        13.8005045169        6.7591153591        6.7591158747
  C        12.4811539021        6.4935224277        6.4935228929
  N         3.0118107525       16.0494859719        5.2218005054
  C         1.6919922121       16.3116759819        5.4876789781
  N        13.8539921115       16.0210709636       16.0210712963
  C        12.5377764804       16.2954247392       16.2954245283
  N        19.7179060507       16.0200325777       17.5762411095
  C        21.0356070883       16.3015661898       17.3173724221
  N         8.8718253445       16.0460202914        6.7787624480
  C        10.1897674720       16.3088165119        6.5028687772
  N         6.7228401969       17.6181443158        3.0790978977
  C         6.4606724129       17.3461166194        1.7599995553
  N         6.7105642070        6.7868702416       13.8956373809
  C         6.4313895054        6.5221741459       12.5786058948
  N         6.7091475896        5.2405919474       19.7657541596
  C         6.4282178585        5.5081665157       21.0818175822
  N         6.7202989839       16.0512800821        8.9366366421
  C         6.4549906023       16.3217646971       10.2551458658
  N        16.0127337501       17.5728537294       19.7250742585
  C        16.2753794251       17.2992183724       21.0430636788
  N        15.9552703294        6.7551651873        8.9097986741
  C        16.2303279157        6.4851180186       10.2265668751
  N        15.9433945982        5.1966714733        3.0406685382
  C        16.2194340668        5.4655379195        1.7235930582
  N        16.0069670828       16.0164371304       13.8650109827
  C        16.2732633967       16.2867227309       12.5469206355
 Zn        14.7127385975       14.7252553879       14.7252552718
 Br        13.3894114063       13.4155402617       13.4155400314
 Zn        14.6508164825        3.9048200339        3.9048206138
 Br        13.3264715978        2.5954189459        2.5954196777
 Zn         3.8796346817       14.7649465052        3.9293557176
 Br         2.5624857170       13.4534346179        2.6129896431
 Zn         3.8796338652        3.9293568157       14.7649467989
 Br         2.5624848817        2.6129905125       13.4534350378
 Zn         8.0087843911        8.0711535682       14.7583925817
 Br         9.3209240405        9.3835877933       13.4380948890
 Zn         8.0081416412       18.9125515212        3.9492626859
 Br         9.3236329262       20.2266592700        2.6352927439
 Zn        18.7935732620        8.0447729946        3.9012231353
 Br        20.1119020100        9.3542909400        2.5856649800
 Zn        18.8579009445       18.8671698266       14.7209547875
 Br        20.1728747035       20.1776386328       13.4035369399
 Zn         8.0087846373       14.7583926830        8.0711533224
 Br         9.3209243499       13.4380952106        9.3835875973
 Zn         8.0081410872        3.9492632801       18.9125518692
 Br         9.3236323610        2.6352934533       20.2266597556
 Zn        18.8579013468       14.7209545958       18.8671693738
 Br        20.1728748498       13.4035367771       20.1776384616
 Zn        18.7935732549        3.9012228917        8.0447737382
 Br        20.1119019858        2.5856648567        9.3542918127
 Zn        14.6646762216        8.0525365537        8.0525367986
 Br        13.3567132103        9.3699633407        9.3699636038
 Zn        14.7227044909       18.8704528695       18.8704531884
 Br        13.4139437659       20.1873161772       20.1873164497
 Zn         3.8550092688        8.0794937940       18.8860432293
 Br         2.5459134051        9.3997506213       20.2008702996
 Zn         3.8550094819       18.8860433520        8.0794922532
 Br         2.5459136847       20.2008702802        9.3997492358
 Zn        14.6922544103       14.7270231228        8.0534784525
 Br        13.3754751219       13.4176461451        9.3705360692
 Zn        14.6893053159        3.8968977087       18.8579674163
 Br        13.3737718719        2.5817973603       20.1711372118
 Zn         3.8963018833       14.7649806004       18.8998411508
 Br         2.5833738220       13.4530080319       20.2192279210
 Zn         3.8355761266        3.9463689641        8.0861069440
 Br         2.5214398638        2.6336760279        9.4037226067
 Zn         7.9906537413        8.0711811594        8.0711813255
 Br         9.3089559297        9.3841592967        9.3841595083
 Zn         8.0538439145       18.8894151755       18.8894145683
 Br         9.3724385092       20.2023759815       20.2023751557
 Zn        18.8231741426        8.0443507419       18.8774433817
 Br        20.1401223031        9.3547395071       20.1930934430
 Zn        18.8231746087       18.8774430220        8.0443506879
 Br        20.1401228920       20.1930931789        9.3547392806
 Zn        14.6922538159        8.0534783538       14.7270232556
 Br        13.3754746867        9.3705358467       13.4176460830
 Zn        14.6893067271       18.8579664207        3.8968975780
 Br        13.3737731089       20.1711361293        2.5817970832
 Zn         3.8355758862        8.0861070223        3.9463693716
 Br         2.5214394394        9.4037226119        2.6336765598
 Zn         3.8963017541       18.8998421677       14.7649802983
 Br         2.5833735512       20.2192286512       13.4530075688
 Zn         8.0234106669       14.7539352522       14.7539341277
 Br         9.3305958793       13.4347900365       13.4347888416
 Zn         7.9608304330        3.9387489194        3.9387485714
 Br         9.2689442070        2.6201432125        2.6201428962
 Zn        18.8327561502       14.7197526299        3.9110835497
 Br        20.1481170974       13.4030572631        2.5999354431
 Zn        18.8327557550        3.9110833301       14.7197532431
 Br        20.1481166369        2.5999349119       13.4030582411
 Zn         5.9426679569        6.0077066909       16.8295014049
 Zn        16.7858861690       16.7905412176       16.7905412181
 Zn        16.7209126429        5.9706291880        5.9706300210
 Zn         5.9426683730       16.8295012611        6.0077061185
 Zn         5.8994835607        6.0102002386        6.0102003232
 Zn        16.7631683960       16.7910727657        5.9712494962
 Zn         5.9665921566       16.8276175720       16.8276169710
 Zn        16.7631679025        5.9712493225       16.7910736875
  N         3.7525385982        6.0048179906       16.8271376240
  N        14.5415126605        5.9784800404        5.9784805015
  N        18.9714154599       16.7920151761       16.7920150636
  N         8.1256010627       16.8312677903        6.0079435618
  N        18.9079241444        5.9712992551        5.9712996792
  N         8.1256005548        6.0079441005       16.8312679222
  N         3.7525390774       16.8271376906        6.0048164995
  N        14.6050892784       16.7970986484       16.7970989791
  N        16.7194456485        3.7897695991        5.9743637652
  N        16.7874422527       14.6097371775       16.7935503574
  N        16.7915178805       18.9798930792       16.7945251938
  N        16.7273201230        8.1600619184        5.9742228927
  N         5.9343130662       19.0145948976        6.0174985173
  N         5.9372251850        8.1922694932       16.8260084801
  N         5.9429076902        3.8226521758       16.8393700230
  N         5.9389739673       14.6446781807        6.0051052757
  N         5.9429089969       16.8393691805        3.8226513909
  N         5.9389736456        6.0051056066       14.6446782238
  N        16.7915181010       16.7945249560       18.9798930029
  N        16.7273205819        5.9742231184        8.1600625004
  N         5.9343125579        6.0174995528       19.0145950880
  N         5.9372253594       16.8260087207        8.1922686301
  N        16.7194463776        5.9743622906        3.7897702294
  N        16.7874421109       16.7935506781       14.6097371591
  N         5.8935542539        3.8252617604        6.0109477225
  N         5.9611933714       14.6427420665       16.8280725846
  N        16.7572721594       18.9800700076        5.9682043019
  N        16.7597701776        8.1600454771       16.8006612539
  N         5.9778578081       19.0120137081       16.8275892214
  N         5.9088590654        8.1945543233        6.0132021355
  N        16.7598202505        3.7897646569       16.7869818376
  N        16.7614244672       14.6097001394        5.9807383381
  N         3.7813701375       16.8374571469       16.8374566247
  N        14.5760607099       16.7919045408        5.9742341255
  N        18.9426065451       16.7975363090        5.9761618137
  N         8.1551831989       16.8205754385       16.8205743460
  N        18.9426061098        5.9761614700       16.7975370334
  N         8.0909657606        6.0040851075        6.0040849316
  N         3.7177769825        6.0217702961        6.0217705689
  N        14.5760601482        5.9742343390       16.7919051510
  N        16.7572715929        5.9682042324       18.9800706317
  N        16.7597708878       16.8006608185        8.1600454829
  N        16.7598213321       16.7869811134        3.7897645425
  N        16.7614240825        5.9807382347       14.6097006056
  N         5.8935538473        6.0109478184        3.8252618728
  N         5.9611933273       16.8280738266       14.6427412033
  N         5.9778581126       16.8275894415       19.0120129220
  N         5.9088591907        6.0132018088        8.1945544326
  C        11.3725357086       15.7505949518       15.7505946584
  H        11.3657520441       14.9751130986       14.9751130953
  C        11.3081431656        4.9334660765        4.9334665376
  H        11.3000611500        4.1580013602        4.1580018304
  C         0.5371414193       15.7550767840        4.9322506409
  H         0.5470262003       14.9801595755        4.1563083905
  C         0.5371410686        4.9322509334       15.7550775766
  H         0.5470260871        4.1563082391       14.9801606293
  C        11.3499373229        7.0464560401       15.7516304407
  H        11.3490010669        7.8214305174       14.9755531951
  C        11.3517000945       17.8684566914        4.9333438612
  H        11.3525773020       18.6445975395        4.1584879029
  C         0.4928786617        7.0621664672        4.9471675593
  H         0.4928859461        7.8386399975        4.1726106902
  C         0.5562447792       17.8773575651       15.7622394935
  H         0.5567390703       18.6541548708       14.9879903350
  C        11.3499376825       15.7516299509        7.0464557339
  H        11.3490013810       14.9755530780        7.8214303027
  C        11.3516994691        4.9333448549       17.8684574031
  H        11.3525764747        4.1584889371       18.6445986297
  C         0.5562449796       15.7622392638       17.8773565933
  H         0.5567394138       14.9879896759       18.6541535462
  C         0.4928787091        4.9471660775        7.0621658749
  H         0.4928861076        4.1726085419        7.8386386542
  C        11.3252999710        7.0484395304        7.0484398736
  H        11.3324598992        7.8239745510        7.8239748699
  C        11.3882863478       17.8657478631       17.8657465857
  H        11.3954388591       18.6412644605       18.6412628033
  C         0.5174247873        7.0490571911       17.8684457674
  H         0.5079686735        7.8251816878       18.6434162277
  C         0.5174254826       17.8684461634        7.0490561133
  H         0.5079695101       18.6434167864        7.8251801295
  C        15.7185142248       11.3885641383       15.7374141987
  H        14.9427682710       11.3917045740       14.9620930512
  C        15.6768485448        0.5597870981        4.9154674349
  H        14.9001274398        0.5545828087        4.1411604783
  C         4.8581612513       11.4232011026        4.9601144788
  H         4.0824072609       11.4263518310        4.1847823962
  C         4.9014882385        0.5932484943       15.7798824358
  H         4.1243376114        0.5891017492       15.0059358214
  C        15.6879175433       11.3896763317        7.0362087234
  H        14.9138779127       11.3938413692        7.8132344386
  C        15.7191109812        0.5609319604       17.8478964179
  H        14.9443864890        0.5567846416       18.6242262297
  C         4.8936123008       11.4210962586       17.8864948296
  H         4.1182739053       11.4245788804       18.6621749728
  C         4.8527581317        0.5940619811        7.0708333701
  H         4.0765686659        0.5884849455        7.8456681218
  C         7.0094338233       11.4137176246       15.7722041527
  H         7.7848561578       11.4105712636       14.9965536987
  C         6.9683677362        0.6056187162        4.9565044543
  H         7.7430745828        0.6115159393        4.1801854429
  C        17.7990263116       11.3804307567        4.9168576312
  H        18.5730846993       11.3760431799        4.1398370778
  C        17.8302954490        0.5690909920       15.7287385318
  H        18.6035141874        0.5732871806       14.9509728747
  C         6.9750823026       11.4158355412        7.0734617496
  H         7.7519476610       11.4127624556        7.8475796602
  C         7.0183564185        0.6012588882       17.8929329243
  H         7.7939694814        0.6056263477       18.6682722435
  C        17.8334471168       11.3816415495       17.8528715341
  H        18.6092088819       11.3781994556       18.6281623540
  C        17.7926647212        0.5704632242        7.0300554681
  H        18.5680751847        0.5756659827        7.8056854245
  C        15.7185142935       15.7374144589       11.3885642931
  H        14.9427682238       14.9620933762       11.3917045492
  C        15.6768493443        4.9154660671        0.5597874947
  H        14.9001281963        4.1411589596        0.5545833867
  C         4.9014896521       15.7798813609        0.5932475358
  H         4.1243392842       15.0059346030        0.5891008650
  C         4.8581613595        4.9601142043       11.4232013303
  H         4.0824074426        4.1847819211       11.4263519985
  C         7.0094340469       15.7722050568       11.4137170977
  H         7.7848562890       14.9965546535       11.4105708693
  C         6.9683673325        4.9565052793        0.6056185518
  H         7.7430744235        4.1801863373        0.6115156569
  C        17.8302958577       15.7287376825        0.5690904796
  H        18.6035144331       14.9509719186        0.5732866193
  C        17.7990268984        4.9168579368       11.3804314810
  H        18.5730851390        4.1398374744       11.3760438316
  C        15.6879178597        7.0362091507       11.3896769227
  H        14.9138782171        7.8132347025       11.3938417644
  C        15.7191116215       17.8478959955        0.5609319146
  H        14.9443872758       18.6242258044        0.5567849959
  C         4.8527574205        7.0708335982        0.5940621831
  H         4.0765676244        7.8456682319        0.5884854463
  C         4.8936124093       17.8864959596       11.4210952666
  H         4.1182741040       18.6621759581       11.4245775600
  C         6.9750820588        7.0734615961       11.4158357052
  H         7.7519474795        7.8475796199       11.4127624974
  C         7.0183575737       17.8929324306        0.6012579970
  H         7.7939704380       18.6682717437        0.6056255487
  C        17.7926654261        7.0300539123        0.5704636876
  H        18.5680761192        7.8056839010        0.5756666533
  C        17.8334473351       17.8528716570       11.3816417140
  H        18.6092091537       18.6281623934       11.3781995166
 Xe         2.7919367331        9.7994771337        9.7994764914
