     409
 i =      56, E =    -5133.8681788944
  N         2.9204321965        5.2781199929       15.9604748995
  C         1.5959447241        5.5212096493       16.2255130966
  N        13.7249709260        5.0749396941        5.1185266999
  C        12.4072757993        5.3466966430        5.3931966369
  N        19.5268458945       17.5266163532       15.9803854554
  C        20.8450042954       17.2906246028       16.2746633784
  N         8.7389798394       17.5999109407        5.2467501506
  C        10.0533580917       17.2943474233        5.4948246341
  N        19.5962140319        5.1439176399        6.7254348325
  C        20.9119119229        5.4503972759        6.4842794718
  N         8.7651325456        5.2366074838       17.6268108677
  C        10.0820949636        5.4582430529       17.3119849241
  N         2.8516965545       17.5952418543        6.7802399073
  C         1.5387106959       17.3023714070        6.5083388745
  N        13.6829181250       17.5747473356       17.5965045551
  C        12.3592894148       17.3213408684       17.3377714249
  N        15.9018020343        2.9513864646        5.1318605577
  C        16.1612361500        1.6349686005        5.4145045523
  N        15.7924791341       13.8179147794       16.0210623831
  C        16.0706157141       12.4978083167       16.2794939430
  N        15.8601163882       19.6915017891       17.5583291331
  C        16.1327140499       21.0055926437       17.2759263004
  N        15.8581140540        8.8080856926        6.6741655326
  C        16.1265744275       10.1294922901        6.4181349813
  N         6.5663731657       19.7548942538        5.2279724013
  C         6.2920621561       21.0729129508        5.4899167266
  N         6.5540890583        8.9900021236       16.0893425425
  C         6.2671842442       10.3073542212       16.3495542739
  N         6.6065952995        3.1214960317       17.5546956253
  C         6.3252170071        1.8061271265       17.2916794720
  N         6.5381512926       13.8882680265        6.8065533342
  C         6.2787646269       12.5715665223        6.5163180322
  N         5.0378450328       16.0537756850        3.0843993636
  C         5.3048036862       16.3339136838        1.7695030430
  N         5.1314054841        5.3513469199       13.8578539063
  C         5.4094977810        5.6174539908       12.5418161975
  N        17.4071740833       15.9686983002       19.7072256691
  C        17.1437191968       16.2336480167       21.0276229821
  N        17.4412007316        5.0918046495        8.8534872388
  C        17.1792854657        5.3751279267       10.1699330610
  N         4.9895794592        6.7723922474       19.7281804010
  C         5.2520518252        6.4907605470       21.0439636948
  N         5.0009827914       17.6316770668        8.9433257619
  C         5.2753690954       17.3751471255       10.2630310895
  N        17.4451601991        6.6648139650        2.9897396151
  C        17.1739692586        6.4039992062        1.6710799938
  N        17.3604370220       17.5190438835       13.8451129166
  C        17.0876048695       17.2393457746       12.5311449307
  N         5.0390351919        3.0853329809        6.7788907765
  C         5.2909501013        1.7627806541        6.5079234610
  N         4.9709711626       13.9437659490       17.6400927247
  C         5.2380510264       12.6257251585       17.3659103360
  N        17.3991020498       19.6390373575        6.7452938609
  C        17.1467284004       20.9560987150        6.4587900788
  N        17.4095320335        8.8617498428       17.5271864491
  C        17.1193987105       10.1771348883       17.2674516117
  N         5.0080421312       19.8069182144       16.0484981905
  C         5.2931435799       21.1253331868       16.3006706475
  N         5.0432179994        8.9423257427        5.1455747964
  C         5.2952652160       10.2574104656        5.4459677878
  N        17.4441255480        2.9909432081       15.9741043636
  C        17.1619435238        1.6753311054       16.2434735818
  N        17.4228629473       13.7819772308        5.1750372847
  C        17.1499349376       12.4616401505        5.4316253627
  N         2.8477124417       16.1046737863       17.6292262382
  C         1.5299754218       16.3432373905       17.3360470980
  N        13.6833597794       15.9153186286        6.7140599706
  C        12.3664552498       16.2107035625        6.4622806345
  N        19.5656336957       15.9543927427        5.2002738581
  C        20.8781347362       16.2440417329        5.4775089726
  N         8.6946215453       16.0795905289       16.0847683248
  C        10.0171859741       16.3333677972       16.3460676073
  N        19.5745176295        6.7259482979       17.5211804231
  C        20.8954168096        6.4826900125       17.2467974958
  N         8.7816764320        6.6882203275        6.6718067033
  C        10.0955756781        6.3881319878        6.4125863405
  N         2.8982524188        6.8022436370        5.2358648460
  C         1.5843913252        6.5134207647        5.5009000107
  N        13.7226288152        6.6396532041       15.9297558556
  C        12.4044927639        6.3887301253       16.2192246013
  N        15.8847039007        5.1412145657       19.6703779398
  C        16.1582137687        5.4030717169       20.9876533405
  N        15.8154223173       15.9336203279        8.8933824325
  C        16.0746497601       16.2112020375       10.2132908089
  N        15.8585506040       17.4960285124        3.0339016016
  C        16.1328458574       17.2361150080        1.7156280403
  N        15.9177750387        6.6944413012       13.8060607481
  C        16.1825286692        6.4168577923       12.4882829128
  N         6.5394234937        5.1845796424        3.0291443355
  C         6.2639542395        5.4591532276        1.7155506039
  N         6.5484196149       16.1144764970       13.9144814619
  C         6.2871838653       16.3797384371       12.5938252836
  N         6.5668362418       17.6527873350       19.7755620979
  C         6.3089767503       17.3703345763       21.0933375673
  N         6.7037591685        6.8420927790        8.8845578970
  C         6.4324963342        6.5989198830       10.2083270060
  N        19.5372977680       17.4978671963        6.7673188507
  C        20.8590791071       17.2526001437        6.5000227658
  N         8.7216412488       17.6487237364       17.6260069561
  C        10.0357496837       17.3574546835       17.3535058667
  N         2.9141219115        5.2673800503        6.8115974828
  C         1.5930956437        5.5093642880        6.5279863643
  N        13.7222638884        5.1313326526       17.5307669862
  C        12.4041773476        5.4053839970       17.2654132663
  N         2.8398887825       17.6529231979       16.0666781255
  C         1.5240688494       17.3546531427       16.3165324742
  N        13.6926013113       17.4960802111        5.1843592914
  C        12.3738043204       17.2437951313        5.4643487552
  N        19.6005321435        5.1719237848       15.9635640300
  C        20.9140333554        5.4707416245       16.2276558216
  N         8.7599840396        5.1482071804        5.1035611144
  C        10.0825214884        5.3836875363        5.3859470496
  N         6.5587352145       19.8094294658       17.6112853055
  C         6.3027351426       21.1263314879       17.3228407307
  N         6.6013408498        8.9280123520        6.6958205423
  C         6.3103221035       10.2490869437        6.4622121537
  N         6.5654281737        3.0649365918        5.1937839106
  C         6.2907809077        1.7522366176        5.4766284407
  N         6.5097769648       13.9470306271       16.0690470014
  C         6.2432685843       12.6290851622       16.3409695314
  N        15.8851690277        3.0023054563       17.5268456349
  C        16.1469427615        1.6840000703       17.2596599784
  N        15.8583518855       13.7691188930        6.7223378366
  C        16.1284357541       12.4526058887        6.4417817262
  N        15.8529820135       19.6390729338        5.1811983650
  C        16.1361874292       20.9558524647        5.4382937842
  N        15.8357424891        8.8507231949       15.9904259652
  C        16.0901295461       10.1723165582       16.2653072082
  N        17.4289307308        6.7065984334       19.6746685872
  C        17.1666579971        6.4253974678       20.9913157061
  N        17.3740684974       17.4851357172        8.8966047856
  C        17.0946182461       17.2224655831       10.2125046293
  N         4.9902615458        6.7462466041        3.0404089161
  C         5.2516051369        6.4776388491        1.7218359271
  N         4.9872439043       17.6624915359       13.9018367372
  C         5.2673796047       17.3910287041       12.5858847265
  N        17.4179020789       15.9435452388        3.0274416270
  C        17.1484099686       16.2202200703        1.7101961787
  N        17.4597308432        5.1254827314       13.8104786221
  C        17.1891984358        5.3919238561       12.4918781118
  N         5.0040579618       16.1042805509       19.7752879324
  C         5.2883985096       16.3595757129       21.0916747209
  N         5.1415312940        5.2918218848        8.9098031346
  C         5.4148897266        5.5852018174       10.2217236695
  N        17.3984797436       19.6757489452       15.9860784956
  C        17.1398275509       20.9954637526       16.2519995910
  N        17.4231665513        8.8242222392        5.1295634630
  C        17.1485021680       10.1392700182        5.4087269874
  N         5.0765612253        3.1272490916       15.9750804866
  C         5.3234325437        1.8076403663       16.2626483324
  N         5.0030198825       13.8981554079        5.2318991712
  C         5.2739089450       12.5790045995        5.4906889098
  N        17.4561648588        2.9543243693        6.6894007608
  C        17.1747635532        1.6362338244        6.4323021454
  N        17.3751091634       13.8158315401       17.5486211378
  C        17.1033822459       12.4985763796       17.2779258414
  N         5.0096440689       19.7620076738        6.7839297731
  C         5.2804035270       21.0792690462        6.5096414419
  N         5.0022046843        8.9811727503       17.6468488039
  C         5.2554090799       10.3014525653       17.3693143288
  N        19.5877569775        6.6932756377        5.1626188114
  C        20.9055081436        6.4599207422        5.4624581904
  N         8.7642755352        6.7523838585       16.0350960486
  C        10.0823955026        6.4460290198       16.2693119687
  N         2.8844436079        6.8129030458       17.5357611110
  C         1.5741077855        6.5257858207       17.2518696451
  N        13.7342573223        6.6082656840        6.6953507061
  C        12.4156935125        6.3473237830        6.4230247402
  N         2.8780062534       16.0483028640        5.2170422453
  C         1.5571358741       16.2925284061        5.4874599434
  N        13.6520768108       16.0107692569       16.0501215175
  C        12.3391551683       16.2993745973       16.3285331080
  N        19.5365453409       15.9750766499       17.5404727285
  C        20.8515282187       16.2779113625       17.2932911114
  N         8.7220333109       16.0173677092        6.7732647302
  C        10.0436031417       16.2602843258        6.4919341871
  N         6.6006780948       17.6010630115        3.0924677031
  C         6.3253634353       17.3442042878        1.7737251719
  N         6.6758688177        6.9206754670       13.8590768089
  C         6.4203344677        6.6385482326       12.5386261206
  N         6.5520519831        5.2228376009       19.7239373012
  C         6.2695289445        5.4771336527       21.0399999023
  N         6.5639626103       16.0829699346        8.9530486774
  C         6.2957707987       16.3637284441       10.2704648012
  N        15.8639956034       17.5365529967       19.7200841209
  C        16.1344338970       17.2555927619       21.0352519862
  N        15.9000499816        6.6592860569        8.8462420064
  C        16.1727581778        6.3996383889       10.1659372073
  N        15.8980365682        5.1003990600        2.9818304143
  C        16.1645159682        5.3821746413        1.6663370057
  N        15.7909204512       15.9774693343       13.8592512765
  C        16.0634703645       16.2320608774       12.5375656026
 Zn        14.4980041041       14.7118637925       14.7584654812
 Br        13.1685151373       13.4147130206       13.4513313346
 Zn        14.6062716498        3.7947902696        3.8315429054
 Br        13.2922596978        2.4856699907        2.5111545837
 Zn         3.7362943183       14.7628233291        3.9247843055
 Br         2.4327955916       13.4440936991        2.6036508129
 Zn         3.8304804456        4.0213637562       14.6678393700
 Br         2.5325869862        2.7224709359       13.3223094235
 Zn         7.9180836404        8.1588459136       14.8633687188
 Br         9.4395044378        9.6572322832       14.0926381480
 Zn         7.8874863479       18.8945834433        3.9568169594
 Br         9.2138679587       20.1976112643        2.6441052468
 Zn        18.7255859195        7.9647558843        3.8481534059
 Br        20.0333838176        9.2924767859        2.5401922136
 Zn        18.6672888839       18.8101348219       14.6785564012
 Br        19.9865333284       20.1128539701       13.3583952401
 Zn         7.8287996739       14.7717840624        8.0796363891
 Br         9.1462077080       13.5021528502        9.4198184227
 Zn         7.8789890674        3.9484853544       18.8882325153
 Br         9.1685727138        2.6118415281       20.2028870775
 Zn        18.6805111965       14.6695819237       18.8277968044
 Br        20.0038068852       13.3544587109       20.1331890226
 Zn        18.7417183638        3.8164169693        7.9911050080
 Br        20.0658286632        2.5050300912        9.2997381186
 Zn        14.5975167276        7.9147848792        7.9642124145
 Br        13.3100793943        9.2268639036        9.2991540612
 Zn        14.5808299255       18.8485669958       18.8780316170
 Br        13.2974746740       20.1820975901       20.2043258627
 Zn         3.6938980425        8.0772558230       18.8860111300
 Br         2.3582922057        9.3575012624       20.2114888009
 Zn         3.7003228581       18.9040408907        8.0649895986
 Br         2.3837891761       20.2328013936        9.3641510701
 Zn        14.5563215371       14.6292401337        8.0035299460
 Br        13.2516646548       13.3093983425        9.3112724903
 Zn        14.5902010244        3.8487799256       18.8230279695
 Br        13.2678349534        2.5448344408       20.1398429343
 Zn         3.6937628403       14.8188868420       18.9336525032
 Br         2.3826643977       13.5045931650       20.2514332522
 Zn         3.8065497387        3.9952736460        8.0992163334
 Br         2.5063185360        2.7025483031        9.4474006009
 Zn         7.9630390967        8.0626561012        7.8954889512
 Br         9.4501658867        9.5231057587        8.7900613257
 Zn         7.8533169632       18.9470943626       18.9087848100
 Br         9.1812545766       20.2518602575       20.2203573246
 Zn        18.7093185094        8.0101105810       18.8183076439
 Br        20.0096117066        9.3364127978       20.1337254093
 Zn        18.6683544591       18.7804268335        8.0573834567
 Br        19.9791697018       20.0983485608        9.3726673719
 Zn        14.6032435322        7.9509139137       14.6730113952
 Br        13.3264023885        9.2619696452       13.3334811872
 Zn        14.5570308842       18.7800292388        3.8922895394
 Br        13.2488398220       20.1039588530        2.5810215135
 Zn         3.7272117745        8.0676934557        3.8957451378
 Br         2.3951677845        9.3711505736        2.5892374206
 Zn         3.6937460825       18.9460420949       14.7708483982
 Br         2.3854412399       20.2736475350       13.4624542602
 Zn         7.8059280135       14.8148893035       14.7934826561
 Br         9.1203815562       13.5257227323       13.4636618908
 Zn         7.8401512371        3.8752456427        3.8472124669
 Br         9.1006239215        2.5262366466        2.5170644982
 Zn        18.7188226301       14.6606437975        3.8954586016
 Br        20.0440494585       13.3612658843        2.5763623020
 Zn        18.7550591080        3.8459902112       14.6913528938
 Br        20.0815032065        2.5261202181       13.3946097348
 Zn         5.8362175429        6.0600803002       16.8194945845
 Zn        16.6041572863       16.7567472202       16.7790176945
 Zn        16.6648767887        5.8778225223        5.9058698076
 Zn         5.7922146990       16.8304567612        6.0149612590
 Zn         5.8385602352        6.0033366105        5.9462497770
 Zn        16.6183909227       16.7074914469        5.9588064900
 Zn         5.7730704362       16.8835807668       16.8503980709
 Zn        16.6605465983        5.9169725397       16.7382952358
  N         3.6493056803        6.0563767061       16.7543567544
  N        14.4763857379        5.8401347341        5.9053332989
  N        18.7853110205       16.7341026198       16.7481891942
  N         7.9840024282       16.8250179472        6.0191716341
  N        18.8459925287        5.8989759040        5.9281550106
  N         8.0191922292        6.0188832929       16.8529446745
  N         3.6117094931       16.8335016478        5.9984647456
  N        14.4141500780       16.7833806469       16.8179308040
  N        16.6838317948        3.6992437104        5.9041847094
  N        16.5822067816       14.5636827141       16.7877243740
  N        16.6260207605       18.9368479825       16.7764233258
  N        16.6430609823        8.0692283956        5.8967214896
  N         5.7892448649       19.0121159048        6.0101402129
  N         5.7884924213        8.2398105208       16.8726769652
  N         5.8504835585        3.8715771547       16.7598881567
  N         5.7684007301       14.6401100043        6.0258844187
  N         5.8208239202       16.8218221123        3.8354160855
  N         5.8965034131        6.1377556716       14.6060251352
  N        16.6334450188       16.7565823979       18.9667634100
  N        16.6675757678        5.8696168498        8.1026198903
  N         5.7774245032        6.0058463927       18.9800881674
  N         5.7803080259       16.8504536570        8.2020856263
  N        16.6726480759        5.8777132807        3.7321121814
  N        16.5760387160       16.7548486766       14.5985148643
  N         5.8092200616        3.8216565909        5.9826550464
  N         5.7411271713       14.6925423706       16.8559074514
  N        16.6180394544       18.8920562652        5.9707910821
  N        16.6330650213        8.1096346985       16.7537464780
  N         5.7756359745       19.0623307092       16.8386686457
  N         5.8337715597        8.1890448407        5.9037682730
  N        16.6694789610        3.7429587364       16.7505938827
  N        16.6405535783       14.5217994912        5.9548621520
  N         3.5905162543       16.8933021494       16.8591883108
  N        14.4344802153       16.6949232772        5.9424820871
  N        18.8046420926       16.7155812575        5.9816980409
  N         7.9616363797       16.8738646009       16.8573713772
  N        18.8411354226        5.9344496055       16.7455500607
  N         8.0245374201        5.9369037446        5.8813165487
  N         3.6530524301        6.0457282802        6.0264537894
  N        14.4692130730        5.8811450072       16.7257243807
  N        16.6535181598        5.9286241661       18.9252246210
  N        16.6007132941       16.7054288248        8.1481583716
  N        16.6366213179       16.7154786508        3.7771712670
  N        16.6889340213        5.9127218728       14.5544995541
  N         5.7697098442        5.9645815877        3.7812664680
  N         5.7631553383       16.8891048675       14.6553708529
  N         5.7782977875       16.8853896225       19.0290206930
  N         5.9208058249        6.0532819765        8.1500177568
  C        11.1662947107       15.7628223804       15.7922739322
  H        11.1480674168       14.9828472613       15.0215069999
  C        11.2381066499        4.8205649367        4.8349286813
  H        11.2287676731        4.0561526560        4.0486589480
  C         0.4110095067       15.7213559701        4.9295287153
  H         0.4327993125       14.9508338584        4.1493796325
  C         0.4462115132        4.9518459236       15.6714406996
  H         0.4627218128        4.1820233550       14.8906812134
  C        11.2449170043        6.9430659244       15.6738749884
  H        11.2467133568        7.7021123941       14.8834648658
  C        11.2186302637       17.8276883235        4.9394193947
  H        11.2263291325       18.6165072844        4.1775360275
  C         0.4213067965        7.0343746183        4.9297184952
  H         0.4168010342        7.8038560121        4.1480736753
  C         0.3597187932       17.8717428024       15.7447471619
  H         0.3517778357       18.6461673126       14.9681835355
  C        11.2000787183       15.6749049278        7.0154396860
  H        11.1927639541       14.8863774871        7.7776274197
  C        11.2422590707        4.8953724149       17.8508762330
  H        11.2414113186        4.1435508278       18.6491842490
  C         0.3758147783       15.7632665492       17.8673372013
  H         0.3842419403       14.9912397312       18.6463111661
  C         0.4358865660        4.9375724534        7.0631665183
  H         0.4401036009        4.1688615132        7.8452675019
  C        11.2630709694        6.9054816041        6.9772273869
  H        11.2728809732        7.6764264279        7.7563972964
  C        11.2096682519       17.8922884181       17.8913449964
  H        11.2283311729       18.6728337530       18.6614895700
  C         0.4033503482        7.0516621661       17.8016649720
  H         0.3862836056        7.8214826866       18.5829246107
  C         0.3657636750       17.8239900001        7.0576376139
  H         0.3447440381       18.5960448586        7.8363593270
  C        15.5215175861       11.3337412394       15.7326973948
  H        14.7353534131       11.3318942912       14.9680426733
  C        15.6007145973        0.4756347055        4.8742581249
  H        14.8269492025        0.4756239074        4.0969309825
  C         4.7362814202       11.4235852666        4.9177097568
  H         3.9656621178       11.4329787991        4.1375673930
  C         4.7635925126        0.6448357517       15.7271042730
  H         3.9939238267        0.6406341085       14.9459012186
  C        15.5746761538       11.2860296508        6.9760762546
  H        14.7956914596       11.2786243684        7.7480835116
  C        15.5908311510        0.5317908970       17.8191796806
  H        14.8177403640        0.5425077924       18.5971549659
  C         4.6998605221       11.4603818169       17.9196192831
  H         3.9307480673       11.4559258619       18.7012591977
  C         4.7400914766        0.6040997520        7.0624861692
  H         3.9711718646        0.6068774135        7.8444312252
  C         6.7973033933       11.4724957403       15.7902620294
  H         7.5746517077       11.4779251248       15.0175497207
  C         6.8337799937        0.5893419648        4.9264679089
  H         7.5999864598        0.5861450232        4.1416729811
  C        17.7013682847       11.3055612149        4.8737213522
  H        18.4812072057       11.3124723702        4.1026897911
  C        17.6973498766        0.5085465692       15.6939259974
  H        18.4686389157        0.4979425385       14.9143327174
  C         6.8378187537       11.4056373018        7.0437770610
  H         7.6154553145       11.3963649459        7.8163150497
  C         6.8579735092        0.6480571914       17.8625275776
  H         7.6249627313        0.6532183717       18.6465839192
  C        17.6680270719       11.3393206649       17.8141794376
  H        18.4552674270       11.3412309290       18.5776972420
  C        17.7088273347        0.4760740685        6.9974706505
  H        18.4806146502        0.4756494042        7.7766502409
  C        15.5151567392       15.6762939632       11.3775757526
  H        14.7342739063       14.9063418752       11.3810528630
  C        15.6149156557        4.8388791685        0.5036236725
  H        14.8436114836        4.0592248116        0.4979573042
  C         4.7442977666       15.7987124527        0.6085080669
  H         3.9646730522       15.0273037504        0.6054275999
  C         4.8640181627        5.0528706682       11.3878088157
  H         4.0885284795        4.2768950478       11.3974591890
  C         6.8449570322       15.8265452689       11.4377681190
  H         7.6244100540       15.0550487253       11.4473479914
  C         6.8147063009        4.9146139437        0.5548252268
  H         7.5885357746        4.1373092835        0.5506416189
  C        17.6942470596       15.6758162154        0.5446852772
  H        18.4671123720       14.8977315249        0.5380826350
  C        17.7292247355        4.8296025355       11.3326126603
  H        18.4980508270        4.0476647739       11.3346375790
  C        15.6339775362        6.9637769280       11.3252236197
  H        14.8658881350        7.7466746734       11.3224742807
  C        15.5865272275       17.7980808539        0.5595916926
  H        14.8143694093       18.5769721749        0.5659962256
  C         4.6997703553        7.0337305653        0.5659186183
  H         3.9255493326        7.8106511037        0.5703162230
  C         4.7216668468       17.9318813138       11.4190314643
  H         3.9440246764       18.7050499566       11.4106150368
  C         6.9737069782        7.1677361586       11.3670976937
  H         7.7476251860        7.9423280668       11.3542171754
  C         6.8709278749       17.9039303654        0.6156746360
  H         7.6503477324       18.6755431563        0.6196817162
  C        17.7167262730        6.9687954051        0.5144450157
  H        18.4860482059        7.7505147028        0.5196183158
  C        17.6444633583       17.7770492764       11.3695356496
  H        18.4258439988       18.5467721804       11.3659827009
 Xe        11.0894899242       11.2538175550       11.3932666513
