     409
 i =      56, E =    -5133.8821756279
  N         2.7517660826        5.2385255087       16.0349364427
  C         1.4326950382        5.5017139980       16.3040610030
  N        13.5653611836        5.2042138077        5.2236264130
  C        12.2483240448        5.4817582246        5.4905850856
  N        19.4662635682       17.5789709957       16.0347993222
  C        20.7848542870       17.3175037478       16.3079284925
  N         8.6509389728       17.6097654592        5.2227739958
  C         9.9679514783       17.3298908861        5.4874281304
  N        19.4316396554        5.2034801475        6.7688993650
  C        20.7481944506        5.4856561531        6.5047466760
  N         8.6099817913        5.2303906555       17.5970404018
  C         9.9286240582        5.4914457226       17.3230521090
  N         2.7797278472       17.6071144943        6.7678082811
  C         1.4631427796       17.3334051380        6.4967099211
  N        13.6123035051       17.5751448517       17.5944747246
  C        12.2933601024       17.3139476920       17.3226839597
  N        15.7176732888        3.0411842248        5.2244985060
  C        15.9949711628        1.7241952274        5.4914846945
  N        15.7559556388       13.8663067677       16.0320686704
  C        16.0200557620       12.5477882259       16.3026848643
  N        15.7599832687       19.7222886066       17.5907452351
  C        16.0172942436       21.0410511365       17.3161491266
  N        15.7345329244        8.9119895119        6.7753159694
  C        16.0134828292       10.2284331383        6.5101032143
  N         6.4888073543       19.7687500670        5.2244862384
  C         6.2069423746       21.0854214831        5.4885176278
  N         6.4663244302        8.9426678980       16.0363605935
  C         6.2026547447       10.2618164895       16.3057076315
  N         6.4548298748        3.0841449248       17.6014066585
  C         6.1936102627        1.7654716837       17.3289702480
  N         6.4885075829       13.9017625593        6.7702654523
  C         6.2125802708       12.5848964074        6.5017736691
  N         4.9445527859       16.0643795377        3.0627536474
  C         5.2158707108       16.3352479275        1.7459003599
  N         4.9043090337        5.2324942947       13.8849231034
  C         5.1721041586        5.5040295873       12.5670425528
  N        17.3206089966       16.0081501964       19.7445033784
  C        17.0507614070       16.2773304608       21.0626919768
  N        17.2854105598        5.2060580120        8.9256842369
  C        17.0182511471        5.4783706878       10.2433649437
  N         4.8937106870        6.7998362567       19.7465752434
  C         5.1619819821        6.5304160812       21.0651001498
  N         4.9337340731       17.6081234314        8.9271124958
  C         5.2065410831       17.3405040059       10.2448442714
  N        17.2666975322        6.7501819500        3.0621868555
  C        16.9964330808        6.4781439168        1.7451969344
  N        17.3163001658       17.5715082182       13.8810634292
  C        17.0458249643       17.3014340300       12.5633695455
  N         4.8970506240        3.0797058094        6.7664908146
  C         5.1727626962        1.7627506336        6.4973462610
  N         4.9381121487       13.9061352206       17.5939112733
  C         5.2003584861       12.5876392237       17.3218624287
  N        17.3056070372       19.7305856398        6.7688070066
  C        17.0268718605       21.0470689319        6.5018253174
  N        17.2801559861        8.9047290122       17.5955945261
  C        17.0200073113       10.2231628319       17.3218634082
  N         4.9353839769       19.7603311396       16.0364777365
  C         5.1964631711       21.0793127410       16.3091226469
  N         4.9071057056        8.9502806695        5.2230997955
  C         5.1845427434       10.2670862583        5.4901381149
  N        17.2765510905        3.0460196450       16.0292841425
  C        17.0128017786        1.7271128890       16.2978381750
  N        17.3171066216       13.8622371525        5.2287951827
  C        17.0422447274       12.5454450065        5.4982156609
  N         2.7888437246       16.0565892121       17.5995580021
  C         1.4701516959       16.3187186112       17.3279024377
  N        13.6021133415       16.0201936785        6.7647655227
  C        12.2854851682       16.2970191916        6.4964770957
  N        19.4696821904       16.0239600912        5.2184816200
  C        20.7863322856       16.3040541468        5.4837386068
  N         8.6487490698       16.0505053373       16.0357013040
  C         9.9674114274       16.3139406461       16.3059562652
  N        19.4263688879        6.7554537117       17.5953343588
  C        20.7454238963        6.4974293872       17.3212680739
  N         8.6124941621        6.7834423312        6.7712473407
  C         9.9296193845        6.5087418837        6.5022144342
  N         2.7425499803        6.8000127076        5.2284339811
  C         1.4255303562        6.5220447760        5.4961894871
  N        13.5728430630        6.7562046704       16.0310684518
  C        12.2540172940        6.4920667177       16.3023003167
  N        15.7157820780        5.1894945294       19.7455995633
  C        15.9834221608        5.4602346094       21.0639788119
  N        15.7525528677       16.0222641391        8.9244389358
  C        16.0259215366       16.2896337842       10.2420555342
  N        15.7654756704       17.5662023701        3.0603436213
  C        16.0362337788       17.2943295822        1.7434698319
  N        15.7326210042        6.7624269543       13.8827940661
  C        16.0045255232        6.4948881566       12.5649338974
  N         6.4471149991        5.2445505794        3.0637744527
  C         6.1761318239        5.5152185369        1.7467640371
  N         6.4953942271       16.0560151423       13.8833261903
  C         6.2252131584       16.3266838539       12.5657956568
  N         6.5037760345       17.6162734854       19.7464704242
  C         6.2333773695       17.3482315758       21.0647766208
  N         6.4585831376        6.7883197460        8.9279139101
  C         6.1873718885        6.5198765911       10.2456580295
  N        19.4639541720       17.5822836606        6.7718304812
  C        20.7823846082       17.3204885505        6.4987596839
  N         8.6552719333       17.6082333599       17.5897008550
  C         9.9720055897       17.3303209662       17.3210260896
  N         2.7483429873        5.2406855421        6.7807193785
  C         1.4296123749        5.5047494668        6.5103601079
  N        13.5672528809        5.1986971650       17.5861229523
  C        12.2503037947        5.4761311806       17.3179589441
  N         2.7824644584       17.6088092909       16.0419015855
  C         1.4658147378       17.3331482880       16.3112846200
  N        13.6078125668       17.5745328974        5.2076267670
  C        12.2892531924       17.3124331930        5.4806029053
  N        19.4346901923        5.1995310518       16.0395634211
  C        20.7510997558        5.4813162855       16.3060361868
  N         8.6079725533        5.2305624273        5.2127866668
  C         9.9265420796        5.4941243919        5.4855100190
  N         6.4945711327       19.7674974521       17.5893257610
  C         6.2135815814       21.0841430123       17.3235312459
  N         6.4643684731        8.9446889911        6.7765662158
  C         6.2008636908       10.2635096496        6.5051086288
  N         6.4511104752        3.0852212276        5.2091793857
  C         6.1881631027        1.7667168358        5.4814290847
  N         6.4921755653       13.9001093346       16.0365372352
  C         6.2154821160       12.5833471927       16.3056446238
  N        15.7208159022        3.0380428770       17.5847645599
  C        15.9975944232        1.7216841290       17.3139625112
  N        15.7580482930       13.8671077230        6.7810522512
  C        16.0253139711       12.5488276533        6.5126948499
  N        15.7534604034       19.7244321072        5.2097876879
  C        16.0127582899       21.0430378979        5.4847133459
  N        15.7273507732        8.9103937621       16.0386693168
  C        16.0051898141       10.2270734802       16.3056676954
  N        17.2694265424        6.7474608831       19.7471359872
  C        16.9979784297        6.4770508309       21.0643289431
  N        17.3113522449       17.5760396936        8.9242018999
  C        17.0433480529       17.3037107971       10.2419051115
  N         4.8912759312        6.8000794969        3.0660878018
  C         5.1604529287        6.5308838101        1.7474506846
  N         4.9371968775       17.6091262723       13.8844522151
  C         5.2081535301       17.3409624424       12.5664206366
  N        17.3178302157       16.0070274757        3.0635589912
  C        17.0496838211       16.2764250176        1.7448153920
  N        17.2850016571        5.2036328969       13.8822009464
  C        17.0179484866        5.4769712880       12.5645403359
  N         4.9466194384       16.0618046682       19.7480131928
  C         5.2165375165       16.3336505905       21.0651663159
  N         4.9036945247        5.2322995491        8.9280918731
  C         5.1718779085        5.5040515803       10.2458033528
  N        17.3105961204       19.7299603203       16.0311552132
  C        17.0305918823       21.0463295728       16.2983897204
  N        17.2865437895        8.9068542270        5.2170751382
  C        17.0277353867       10.2250100989        5.4933085183
  N         4.9013921490        3.0777269175       16.0441258352
  C         5.1786160452        1.7609335184       16.3126985202
  N         4.9348828706       13.9065201169        5.2119357617
  C         5.1978483084       12.5882060609        5.4850638482
  N        17.2751626509        3.0463867637        6.7776821469
  C        17.0112879806        1.7278941489        6.5064542902
  N        17.3151546092       13.8602529922       17.5847188934
  C        17.0371706191       12.5436900455       17.3169954154
  N         4.9285103580       19.7620749600        6.7758006045
  C         5.1890786328       21.0810420759        6.5021321310
  N         4.9084460073        8.9502511765       17.5896650665
  C         5.1859761921       10.2666697182       17.3204157265
  N        19.4252970791        6.7581606006        5.2114895605
  C        20.7438668938        6.5010297455        5.4886967024
  N         8.6152282681        6.7820712008       16.0378190901
  C         9.9322064451        6.5052814881       16.3055896388
  N         2.7438258339        6.7987030830       17.5868271798
  C         1.4271814783        6.5195191120       17.3178080815
  N        13.5703765003        6.7635048974        6.7763948093
  C        12.2515360079        6.4988410061        6.5050554633
  N         2.7859179380       16.0563018439        5.2081322336
  C         1.4672986451       16.3197873702        5.4790908913
  N        13.6048205129       16.0217933260       16.0369003012
  C        12.2884143930       16.2992442394       16.3062133523
  N        19.4725610491       16.0199672238       17.5881968915
  C        20.7891591106       16.3006885303       17.3226321257
  N         8.6463503435       16.0500691328        6.7742336848
  C         9.9646409167       16.3122910406        6.5011955647
  N         6.5014147432       17.6190078318        3.0656718899
  C         6.2326062273       17.3499093386        1.7470174118
  N         6.4590904497        6.7883479179       13.8844428537
  C         6.1876116012        6.5198564168       12.5667881952
  N         6.4493689770        5.2437524618       19.7491513551
  C         6.1775791180        5.5145612890       21.0661128312
  N         6.4924940800       16.0551626740        8.9268523153
  C         6.2237836575       16.3263065648       10.2445474942
  N        15.7683858987       17.5674442763       19.7453135314
  C        16.0373692853       17.2952800135       21.0626602166
  N        15.7325834060        6.7646584497        8.9264150337
  C        16.0046921532        6.4960843247       10.2437720436
  N        15.7131463616        5.1922393959        3.0649469543
  C        15.9818868202        5.4613083295        1.7462625100
  N        15.7580972244       16.0177759073       13.8815345551
  C        16.0285703289       16.2873216112       12.5636380178
 Zn        14.4595112839       14.7272168501       14.7426922960
 Br        13.1428190675       13.4169144646       13.4268757888
 Zn        14.4234294178        3.9015056042        3.9372666015
 Br        13.1032662799        2.5906943449        2.6235664040
 Zn         3.6493698253       14.7696947201        3.9123397834
 Br         2.3342523555       13.4576983075        2.5963503750
 Zn         3.6153346480        3.9420041911       14.7499135453
 Br         2.3003512198        2.6275599627       13.4341093882
 Zn         7.7542288607        8.0734343016       14.7463081934
 Br         9.0729868676        9.3847680415       13.4311443980
 Zn         7.7898088434       18.9113634053        3.9391675741
 Br         9.1078201438       20.2240784880        2.6257038604
 Zn        18.5617394065        8.0451607851        3.9123201881
 Br        19.8792023046        9.3543292808        2.5958001554
 Zn        18.6053844046       18.8714433420       14.7397025936
 Br        19.9206798039       20.1845388955       13.4252262464
 Zn         7.7831632873       14.7611363524        8.0643604525
 Br         9.0904600381       13.4392840430        9.3790603860
 Zn         7.7419213558        3.9484611163       18.8923328544
 Br         9.0531345501        2.6345583175       20.2117280301
 Zn        18.6121456142       14.7184151945       18.8768418166
 Br        19.9272632242       13.4009489470       20.1876094280
 Zn        18.5707024016        3.9082650933        8.0624269625
 Br        19.8872629161        2.5954444081        9.3768708002
 Zn        14.4399743526        8.0565561126        8.0649874337
 Br        13.1306645894        9.3747846432        9.3813444432
 Zn        14.4774434441       18.8637184877       18.8872401027
 Br        13.1640337360       20.1769004966       20.2048417036
 Zn         3.6088075971        8.0958189934       18.8782884234
 Br         2.2922359526        9.4119693943       20.1892942284
 Zn         3.6345703240       18.8938238831        8.0646597578
 Br         2.3223591719       20.2099831266        9.3805004104
 Zn        14.4561849557       14.7290404486        8.0628355776
 Br        13.1398009731       13.4190445459        9.3792488770
 Zn        14.4272654588        3.8983669876       18.8773417822
 Br        13.1063728300        2.5851487737       20.1870004000
 Zn         3.6530560654       14.7686049273       18.8895687288
 Br         2.3374814736       13.4578456924       20.2075014146
 Zn         3.6127113343        3.9427282593        8.0643982444
 Br         2.2971403636        2.6281839714        9.3791772269
 Zn         7.7529305771        8.0743291571        8.0648807191
 Br         9.0732845148        9.3849001996        9.3790743396
 Zn         7.7932810935       18.9072490591       18.8784774300
 Br         9.1125423619       20.2207045275       20.1896187497
 Zn        18.5622719852        8.0429319349       18.8898161470
 Br        19.8784132173        9.3518692031       20.2089294456
 Zn        18.6008528666       18.8748593800        8.0623142663
 Br        19.9133267910       20.1898103207        9.3778888872
 Zn        14.4389186144        8.0535249073       14.7435674357
 Br        13.1273566578        9.3703051300       13.4280159006
 Zn        14.4705684782       18.8625898807        3.9094885826
 Br        13.1571917488       20.1759180266        2.5932652372
 Zn         3.6066603546        8.0956432104        3.9388413664
 Br         2.2914940552        9.4108068682        2.6245619931
 Zn         3.6392879013       18.8952050695       14.7474965216
 Br         2.3287767422       20.2132145301       13.4317031134
 Zn         7.7860407898       14.7619238183       14.7434958839
 Br         9.0941380104       13.4409251026       13.4286617659
 Zn         7.7396015373        3.9485171456        3.9142723596
 Br         9.0511222145        2.6322885556        2.5984803642
 Zn        18.6105446443       14.7192854184        3.9364526155
 Br        19.9253730761       13.4025343769        2.6238957171
 Zn        18.5721843640        3.9067266136       14.7441481910
 Br        19.8891351347        2.5949933651       13.4289502277
 Zn         5.6787140309        6.0127652754       16.8197063237
 Zn        16.5449167963       16.7887512299       16.8154094013
 Zn        16.4991508738        5.9761746139        5.9985365453
 Zn         5.7203516187       16.8321885947        5.9985993836
 Zn         5.6775156080        6.0125551026        5.9984503557
 Zn        16.5402596923       16.7926147200        5.9972907184
 Zn         5.7248855599       16.8321866968       16.8181667059
 Zn        16.4991361153        5.9692679381       16.8173158105
  N         3.4943255909        6.0221091655       16.8108762147
  N        14.3143954717        5.9804283018        6.0010957382
  N        18.7231828720       16.7944690399       16.8093037248
  N         7.9020003101       16.8342644884        6.0008417010
  N        18.6819456066        5.9744829733        5.9866621454
  N         7.8656792433        6.0103103126       16.8191366153
  N         3.5300000400       16.8342169714        5.9882284247
  N        14.3555135646       16.7943921915       16.8164480498
  N        16.4932216487        3.7906395768        6.0020575446
  N        16.5389607972       14.6096561032       16.8077443400
  N        16.5411922981       18.9790081807       16.8134404116
  N        16.5051891160        8.1623952329        5.9932417759
  N         5.7142487343       19.0187626383        6.0028349067
  N         5.6838625047        8.1996975912       16.8129248695
  N         5.6743023195        3.8278406674       16.8237449345
  N         5.7150916046       14.6507181329        5.9899537464
  N         5.7221581231       16.8410099693        3.8110295978
  N         5.6827310507        6.0096140142       14.6315936665
  N        16.5447871851       16.7885965134       18.9982924080
  N        16.5075131856        5.9842426043        8.1794497545
  N         5.6725638700        6.0213815299       19.0012758374
  N         5.7119934917       16.8305991345        8.1804088642
  N        16.4904935174        5.9720640726        3.8104071948
  N        16.5371785553       16.7948922198       14.6280081994
  N         5.6711334344        3.8291880699        5.9873183482
  N         5.7189168903       14.6498085158       16.8162532493
  N        16.5345942653       18.9805340100        5.9870324052
  N        16.4993578164        8.1603337076       16.8189982159
  N         5.7200436163       19.0173954809       16.8109687648
  N         5.6820748774        8.2006402854        6.0009796642
  N        16.4958148289        3.7885863082       16.8077340505
  N        16.5391706165       14.6113031559        6.0043879761
  N         3.5329356297       16.8359660756       16.8212027105
  N        14.3518993778       16.7938099173        5.9851316206
  N        18.7203301401       16.7982548306        5.9975083193
  N         7.9054953018       16.8328021472       16.8122173557
  N        18.6838859426        5.9714865989       16.8197871832
  N         7.8634257541        6.0099293805        5.9911934501
  N         3.4920803627        6.0233733782        6.0050964796
  N        14.3163764310        5.9742009505       16.8079376359
  N        16.4936709709        5.9683426438       18.9997639697
  N        16.5305316252       16.8004267727        8.1779068431
  N        16.5408865356       16.7875474261        3.8087884381
  N        16.5072418022        5.9812017367       14.6293479590
  N         5.6699144040        6.0217685327        3.8117048930
  N         5.7161214020       16.8318478491       14.6307043776
  N         5.7253807220       16.8379766310       19.0006095851
  N         5.6819787905        6.0093750774        8.1812789660
  C        11.1246211604       15.7569612046       15.7561328297
  H        11.1194538902       14.9815169008       14.9805194373
  C        11.0857059321        4.9383723272        4.9384465464
  H        11.0830655416        4.1627891422        4.1630075144
  C         0.3093775363       15.7632827659        4.9305605201
  H         0.3136363937       14.9886563262        4.1541905854
  C         0.2760673691        4.9421425236       15.7551825220
  H         0.2829160918        4.1665437722       14.9797666377
  C        11.0953810737        7.0476620076       15.7536817790
  H        11.0986874151        7.8227308545       14.9776943488
  C        11.1310345020       17.8710813862        4.9345392648
  H        11.1347483074       18.6472340813        4.1597031629
  C         0.2616159019        7.0623477404        4.9440139764
  H         0.2563267847        7.8383527425        4.1690251195
  C         0.3025713752       17.8757652866       15.7603499579
  H         0.2980152108       18.6517604805       14.9852520489
  C        11.1226489611       15.7542261034        7.0480295279
  H        11.1188741349       14.9783163082        7.8231918923
  C        11.0870776736        4.9344923197       17.8703720249
  H        11.0832809393        4.1597733467       18.6466431717
  C         0.3126228466       15.7606431128       17.8756821119
  H         0.3177216508       14.9857927876       18.6517808845
  C         0.2719376800        4.9462348099        7.0578522819
  H         0.2768827250        4.1707095735        7.8333271117
  C        11.0922664659        7.0535072841        7.0531049396
  H        11.0944911882        7.8290280494        7.8286242380
  C        11.1360584161       17.8718070012       17.8715655408
  H        11.1414153120       18.6471064657       18.6472346415
  C         0.2620725129        7.0594308943       17.8677214137
  H         0.2549098679        7.8360892113       18.6420336772
  C         0.3002662920       17.8772174932        7.0471669125
  H         0.2961654075       18.6527325695        7.8227591979
  C        15.4628664548       11.3901200237       15.7541710130
  H        14.6871158582       11.3942346608       14.9788821270
  C        15.4536312297        0.5611016278        4.9386817775
  H        14.6777421294        0.5569580649        4.1634945804
  C         4.6415218985       11.4295349687        4.9377397032
  H         3.8660024132       11.4323507506        4.1621719601
  C         4.6372085195        0.5968745498       15.7619169032
  H         3.8609196746        0.5915357575       14.9871808900
  C        15.4704270184       11.3907097289        7.0622070694
  H        14.6945487794       11.3936296734        7.8373416989
  C        15.4573214987        0.5573715294       17.8647105614
  H        14.6821570473        0.5507551755       18.6405931562
  C         4.6432036626       11.4301124992       17.8706982082
  H         3.8675840231       11.4348031099       18.6461592554
  C         4.6299855805        0.5992230196        7.0481221761
  H         3.8533822512        0.5949139050        7.8225430088
  C         6.7587973070       11.4195862994       15.7560001773
  H         7.5345231916       11.4150989977       14.9807362240
  C         6.7469459338        0.6087254519        4.9350433714
  H         7.5226246367        0.6134057383        4.1596979288
  C        17.5855194818       11.3829806548        4.9464492790
  H        18.3602290358       11.3793888711        4.1701156979
  C        17.5699536242        0.5706064398       15.7466984061
  H        18.3441868371        0.5769990099       14.9699434054
  C         6.7563118066       11.4222087297        7.0532420109
  H         7.5315439363       11.4193720440        7.8289979516
  C         6.7528870662        0.6081164355       17.8763040633
  H         7.5279091396        0.6139200784       18.6522979892
  C        17.5789227740       11.3805614135       17.8688922620
  H        18.3545692475       11.3759603217       18.6442667306
  C        17.5679629846        0.5699914374        7.0547417187
  H        18.3425550855        0.5740707686        7.8311411935
  C        15.4772045936       15.7392813903       11.4029628091
  H        14.7005337581       14.9649512045       11.4030505040
  C        15.4333497810        4.9107322831        0.5850590638
  H        14.6582933573        4.1347723890        0.5848246048
  C         4.6656510268       15.7856011474        0.5857215342
  H         3.8890969864       15.0110754394        0.5860416906
  C         4.6216218964        4.9548597325       11.4064919202
  H         3.8457938228        4.1796517734       11.4065397565
  C         6.7751771944       15.7777666278       11.4049323256
  H         7.5511090408       15.0026530069       11.4045188852
  C         6.7264250771        4.9650597859        0.5869071601
  H         7.5018275709        4.1893668694        0.5876630586
  C        17.5985642637       15.7258934235        0.5838614432
  H        18.3725187845       14.9488651302        0.5838240747
  C        17.5669842832        4.9270491339       11.4036913314
  H        18.3398987615        4.1489683278       11.4031612585
  C        15.4566438366        7.0469888456       11.4045632777
  H        14.6821740546        7.8235243704       11.4046549871
  C        15.4882213861       17.8455857113        0.5830030133
  H        14.7143804113       18.6227987751        0.5829206596
  C         4.6115418915        7.0802966140        0.5858607244
  H         3.8362726670        7.8560255639        0.5851003049
  C         4.6575350176       17.8902991424       11.4059197162
  H         3.8815432460       18.6653385776       11.4063468582
  C         6.7368144754        7.0701433943       11.4061746877
  H         7.5126103919        7.8454134493       11.4060616890
  C         6.7833802317       17.8979936271        0.5857535994
  H         7.5602936979       18.6720665670        0.5853707403
  C        17.5464202136        7.0276646753        0.5848677840
  H        18.3219016330        7.8032315041        0.5850077520
  C        17.5956982964       17.8507439633       11.4025909673
  H        18.3727513523       18.6247161149       11.4024050227
 Xe        19.0693112898        9.5993566838        9.6397558839
