     409
 i =      56, E =    -5133.8770328788
  N         2.7884324682        5.2143535330       15.9762206414
  C         1.4710430422        5.4989858610       16.2348227069
  N        13.5646065999        5.1354972330        5.1012870161
  C        12.2440264337        5.3816331278        5.3881722438
  N        19.6075361967       17.6133081367       16.0338279026
  C        20.9250066492       17.3340240169       16.2991550146
  N         8.7302509638       17.5426138563        5.2127248335
  C        10.0490239687       17.2691542295        5.4758078269
  N        19.4242370975        5.2256371867        6.7805112491
  C        20.7443574225        5.4901613389        6.5119088559
  N         8.6481967943        5.1745614661       17.5556128201
  C         9.9673910918        5.4246619290       17.2749091586
  N         2.8696107537       17.5365994994        6.7789582739
  C         1.5513179972       17.2769020735        6.5041689153
  N        13.7410275268       17.6244895807       17.6108267432
  C        12.4238720267       17.3467629120       17.3430188468
  N        15.7515411415        3.0189488112        5.1819807196
  C        16.0449677315        1.7078753511        5.4599041757
  N        15.9084344362       13.9096863749       16.0265012461
  C        16.1640513525       12.5903378920       16.2971675342
  N        15.8997490635       19.7673323125       17.5874676829
  C        16.1350035552       21.0852600249       17.2905047356
  N        15.7359624316        8.8961884202        6.6926272792
  C        16.0430476979       10.2131642677        6.4590713363
  N         6.5545675677       19.6979757888        5.2166992651
  C         6.2484843194       21.0117088101        5.4656280770
  N         6.5683333461        8.8931348580       15.9983794245
  C         6.3239303312       10.2150475392       16.2778657638
  N         6.4947046343        3.0545506801       17.5720791854
  C         6.2502007681        1.7338064466       17.3004499391
  N         6.5612014400       13.8136415154        6.7377682154
  C         6.2789830640       12.4993460522        6.4594762239
  N         5.0209344128       16.0081685612        3.0437394116
  C         5.2988537651       16.2844007675        1.7286357939
  N         4.9316759475        5.1710018868       13.8380058232
  C         5.1872602850        5.4414650894       12.5175078680
  N        17.4527120229       16.0483229555       19.7476865960
  C        17.1678007984       16.3019192961       21.0656715146
  N        17.2005830374        5.2590576771        8.8827065737
  C        16.9276925260        5.5424141756       10.1968730837
  N         4.9327881394        6.7705341250       19.6916423538
  C         5.1822171586        6.4904824243       21.0116792520
  N         5.0460031237       17.5271459681        8.9196377479
  C         5.3379548536       17.2687418132       10.2343695252
  N        17.3294973213        6.7036195420        3.0217144175
  C        17.0759561855        6.4308420155        1.7026426736
  N        17.4511977578       17.6117668944       13.8771228644
  C        17.1691695306       17.3385741143       12.5619069426
  N         4.8778648431        2.9974573176        6.7081381518
  C         5.1719874019        1.6813691594        6.4523143583
  N         5.0762642426       13.8646213658       17.5735187215
  C         5.3344456241       12.5460430223       17.2982695339
  N        17.3907875078       19.7325851060        6.7596010305
  C        17.0991762517       21.0464503071        6.4878946076
  N        17.3569224863        8.9344699928       17.6118733899
  C        17.1225013497       10.2558292124       17.3274137405
  N         5.0556313529       19.7133545988       16.0101875907
  C         5.2954919747       21.0352347287       16.2830234339
  N         4.9370219759        8.8798706407        5.1683322591
  C         5.2291690457       10.1933364734        5.4381405689
  N        17.3082311749        3.0984062109       15.9375027659
  C        17.0756718814        1.7758946512       16.2237320779
  N        17.4001057353       13.8499855967        5.2397189990
  C        17.1121704755       12.5325285088        5.4927474997
  N         2.9194375018       16.0156599798       17.5704487500
  C         1.6029469347       16.2973115182       17.3065979592
  N        13.6927138479       15.9875786608        6.7574279279
  C        12.3736456071       16.2484673759        6.4823401751
  N        19.5483928419       16.0108373977        5.2156553130
  C        20.8668848275       16.2775415441        5.4839509458
  N         8.7948451017       16.0311249204       16.0535107436
  C        10.1094652749       16.3115511549       16.3284201616
  N        19.4789725300        6.7894923435       17.5288960806
  C        20.7938736793        6.5203231238       17.2483227131
  N         8.6104874284        6.6408797473        6.7207906655
  C         9.9242256830        6.3664936680        6.4407424769
  N         2.7465966167        6.7508805365        5.1986543889
  C         1.4287207413        6.4912796365        5.4797651497
  N        13.6083285747        6.7276606512       16.0104735689
  C        12.2909548879        6.4305110278       16.2547660125
  N        15.8092183709        5.1702722935       19.6948442909
  C        16.0792975893        5.4259485325       21.0139539400
  N        15.8451950645       16.0390035982        8.9367503927
  C        16.1254766605       16.3157799593       10.2517114389
  N        15.8399271969       17.5439437896        3.0631838595
  C        16.1244686264       17.2876104027        1.7463643649
  N        15.6746822007        6.8724592413       13.8369683934
  C        15.9220180204        6.5818252142       12.5177443784
  N         6.4228443967        5.1624494456        3.0087309021
  C         6.1625649952        5.4463049130        1.6934484276
  N         6.6609234266       16.0116467769       13.8726461797
  C         6.3841040425       16.2736377110       12.5531587876
  N         6.6081367640       17.5859598739       19.7404568561
  C         6.3301647730       17.3119074603       21.0565018245
  N         6.4514355547        6.7103177720        8.8669554902
  C         6.1827778802        6.4506320989       10.1865615091
  N        19.5533884406       17.5691571968        6.7688430917
  C        20.8703062380       17.2922996087        6.5005481812
  N         8.7789725473       17.5996295542       17.5974368867
  C        10.1004764741       17.3351912362       17.3361624393
  N         2.7450123217        5.1941543784        6.7551595738
  C         1.4271458837        5.4779103220        6.4981905091
  N        13.6081850656        5.2037145254       17.5955283564
  C        12.2901509542        5.4414055914       17.2960176215
  N         2.9243731275       17.5645873201       16.0090954585
  C         1.6062037882       17.3097956553       16.2880630876
  N        13.6878667046       17.5600711319        5.2191235156
  C        12.3709561272       17.2778459704        5.4805548617
  N        19.4666732490        5.2571139568       15.9507473450
  C        20.7877744028        5.5158006035       16.2216702462
  N         8.5981010316        5.1154325646        5.1362626933
  C         9.9191093854        5.3706684968        5.4069314398
  N         6.6005143524       19.7412711728       17.5762621109
  C         6.3052775810       21.0540035873       17.3044292142
  N         6.5108408204        8.8544289594        6.7057346717
  C         6.2549891540       10.1768778917        6.4436533424
  N         6.4250855945        3.0074938761        5.1448951702
  C         6.1826103060        1.6895592894        5.4319260280
  N         6.6526623235       13.8562493587       16.0387848030
  C         6.3642795313       12.5388140963       16.2970516972
  N        15.7734804563        3.0757983771       17.5127474587
  C        16.0727515005        1.7636300825       17.2518287918
  N        15.8569072959       13.8511345452        6.8081225685
  C        16.1037843350       12.5336326099        6.5153735645
  N        15.8439276575       19.7063629495        5.1950166974
  C        16.0912196437       21.0278125926        5.4647405461
  N        15.8078161832        8.9557625183       16.0503099723
  C        16.1111092066       10.2699270506       16.3074572001
  N        17.3630742325        6.7276352808       19.7104648012
  C        17.0929443853        6.4431746506       21.0243833833
  N        17.4095897913       17.5873256843        8.9193314054
  C        17.1475901383       17.3252458937       10.2399773561
  N         4.8808275687        6.7313563056        3.0133649608
  C         5.1560859093        6.4709899231        1.6939590452
  N         5.0950499777       17.5574075419       13.8700632816
  C         5.3625492111       17.2834312573       12.5537700224
  N        17.3954751621       15.9895685565        3.0653511453
  C        17.1397069001       16.2718053215        1.7470741018
  N        17.2438385816        5.3258511042       13.8334834878
  C        16.9488795485        5.5770775711       12.5175958921
  N         5.0598659962       16.0224972938       19.7277911101
  C         5.3180842753       16.2925999282       21.0474147927
  N         4.9083712837        5.1424697681        8.8795598612
  C         5.1759609890        5.4262658893       10.1953781981
  N        17.4411262434       19.7764311145       16.0169125272
  C        17.1403563169       21.0932213250       16.2644628124
  N        17.2913708970        8.8947092637        5.1382690516
  C        17.0570677662       10.2118799632        5.4419148403
  N         4.9419923135        3.0292957937       16.0128685219
  C         5.2375959327        1.7158028787       16.2819755142
  N         5.0005458625       13.8370900896        5.1873047706
  C         5.2582947117       12.5152124813        5.4489647895
  N        17.2844153356        3.0531091011        6.7603048037
  C        17.0474237086        1.7289534108        6.4885732431
  N        17.4569022257       13.8943407568       17.5887483329
  C        17.1741797475       12.5784138238       17.3175801310
  N         5.0035525711       19.6823250841        6.7757446196
  C         5.2362458805       21.0016938891        6.4844641834
  N         4.9889788142        8.9116499746       17.5306401813
  C         5.2929032617       10.2255654371       17.2782106123
  N        19.4326621477        6.7616637776        5.2072279075
  C        20.7481250215        6.4957486166        5.4865701795
  N         8.6549321660        6.6709662934       15.9420519288
  C         9.9704728500        6.4014104406       16.2230312081
  N         2.7937302324        6.7782870028       17.5241783382
  C         1.4750355721        6.5157680406       17.2495235664
  N        13.5581281400        6.6786631504        6.6687754407
  C        12.2426210005        6.3854360598        6.4156145595
  N         2.8645704135       15.9989122541        5.2055481139
  C         1.5478676402       16.2702091974        5.4796637035
  N        13.7485840046       16.0575457552       16.0679754209
  C        12.4300127886       16.3234566455       16.3353275987
  N        19.6039964345       16.0566793229       17.5898105511
  C        20.9221753892       16.3187038030       17.3154709773
  N         8.7340203323       15.9548428825        6.7357694700
  C        10.0514125246       16.2339063482        6.4714373539
  N         6.5773106032       17.5625916322        3.0595499361
  C         6.3142534533       17.3003138298        1.7388178978
  N         6.4695983696        6.7438712622       13.8227296936
  C         6.1920844634        6.4677969290       12.5075220102
  N         6.4778131183        5.2055917719       19.7017916260
  C         6.1899029007        5.4672856103       21.0159340850
  N         6.6064792234       15.9748822725        8.9088575090
  C         6.3572395101       16.2565227683       10.2293024509
  N        15.9013691575       17.6093187853       19.7490948826
  C        16.1544415684       17.3201275878       21.0661182727
  N        15.6226301191        6.7952198168        8.8681364229
  C        15.8975215845        6.5430773535       10.1890969021
  N        15.7808455175        5.1405037881        3.0066219821
  C        16.0643404862        5.4113411077        1.6923793603
  N        15.8836509412       16.0685807565       13.8935475447
  C        16.1456650760       16.3309209391       12.5733058780
 Zn        14.6017829863       14.7772452222       14.7638244489
 Br        13.2142936081       13.5361486544       13.4517446232
 Zn        14.4733610108        3.8433126340        3.8443364787
 Br        13.1974650053        2.5028329235        2.5197395866
 Zn         3.7225400949       14.7177046492        3.8961782568
 Br         2.3924448145       13.4278751190        2.5721798188
 Zn         3.6438265037        3.8865365910       14.7164886612
 Br         2.3180216214        2.5641783364       13.4199826962
 Zn         7.8030865374        8.0009677221       14.6713155849
 Br         9.0928742321        9.3028985702       13.3211916477
 Zn         7.8649697018       18.8463880498        3.9380305002
 Br         9.1810503145       20.1690645292        2.6317117471
 Zn        18.5991838736        8.0211828306        3.8740299501
 Br        19.9274761410        9.3243127102        2.5629051796
 Zn        18.7450816986       18.9066916173       14.7366900125
 Br        20.0588569033       20.2230329212       13.4225499555
 Zn         7.8671044718       14.6613023670        8.0249214757
 Br         9.1647238866       13.3269764309        9.3375889683
 Zn         7.7837362572        3.9123366177       18.8691654403
 Br         9.1000320481        2.6074384151       20.1899334350
 Zn        18.7475407802       14.7609626092       18.8822197504
 Br        20.0537954693       13.4341840388       20.1937584977
 Zn        18.5276138392        3.9556115481        8.0664697943
 Br        19.8286825633        2.6606991948        9.4127497994
 Zn        14.3640551949        8.0559799254        7.9075996412
 Br        12.8531768902        9.4924976909        8.8319779795
 Zn        14.6138259143       18.9151864139       18.8920798623
 Br        13.3027257228       20.2231497833       20.2157473430
 Zn         3.6680874496        8.0709488778       18.8115730380
 Br         2.3649502591        9.4088155293       20.1147281949
 Zn         3.7337915767       18.8158545358        8.0791332458
 Br         2.4246994364       20.1276103033        9.4015088919
 Zn        14.5582885450       14.7299727099        8.0801432710
 Br        13.1722425085       13.5004883273        9.4046850862
 Zn        14.4941219901        3.8964952561       18.8429080816
 Br        13.1998949985        2.5613911425       20.1559520737
 Zn         3.7809100770       14.7217508410       18.8632980803
 Br         2.4535014685       13.4145110776       20.1714461269
 Zn         3.6037601109        3.8626443402        8.0142277709
 Br         2.2797323283        2.5567574053        9.3292872601
 Zn         7.7775897403        7.9611183171        8.0022656738
 Br         9.0669651040        9.2722714684        9.3428606515
 Zn         7.8950786144       18.8885165324       18.8794259517
 Br         9.1933892205       20.2137157853       20.2000735761
 Zn        18.6503263838        8.0450876403       18.8777177387
 Br        19.9869142944        9.3229683507       20.2039017230
 Zn        18.6968472585       18.8802354039        8.0483939277
 Br        20.0161471945       20.2071950579        9.3454897899
 Zn        14.4312956725        8.1374532961       14.8164422177
 Br        12.8728934661        9.6148902151       14.0406908004
 Zn        14.5476516322       18.8359460453        3.9127022958
 Br        13.2243444241       20.1405985178        2.5972785567
 Zn         3.6145302190        8.0354193465        3.8950305590
 Br         2.3077727696        9.3693038106        2.5914518216
 Zn         3.7857879574       18.8407712208       14.7099311191
 Br         2.4711965539       20.1512097542       13.3898460868
 Zn         7.9512909848       14.7250756691       14.7580304806
 Br         9.2570341223       13.4065252591       13.4384467806
 Zn         7.7125023844        3.8503769918        3.8407304660
 Br         9.0183457018        2.5356721958        2.5184121067
 Zn        18.6860213914       14.7070153683        3.9385997919
 Br        19.9896689801       13.3799650825        2.6240569500
 Zn        18.5621151633        4.0086698011       14.6484085914
 Br        19.8560587641        2.7101604743       13.2974555204
 Zn         5.7260433148        5.9673338648       16.7649704996
 Zn        16.6795471247       16.8383806796       16.8223307563
 Zn        16.4901933654        5.9611998784        5.9287063094
 Zn         5.7969806962       16.7606154519        5.9903997389
 Zn         5.6725408067        5.9352469745        5.9429632109
 Zn        16.6193231360       16.7829703541        6.0013014285
 Zn         5.8563423706       16.7931029023       16.8052161062
 Zn        16.5367088607        6.0187760707       16.7826983262
  N         3.5375994205        5.9898324200       16.7544951970
  N        14.3074106184        5.9211971939        5.8763021018
  N        18.8595264657       16.8386553717       16.8141696028
  N         7.9853968751       16.7475335823        5.9750471059
  N        18.6810075119        5.9934140172        5.9891565238
  N         7.9049191743        5.9291914150       16.7510454216
  N         3.6138219731       16.7650479092        5.9925777635
  N        14.4919458859       16.8442317418       16.8388239032
  N        16.5034892562        3.7822239085        5.9690316188
  N        16.6884743434       14.6492576219       16.8087175976
  N        16.6872898578       19.0256037091       16.8152096399
  N        16.4942377546        8.1490660180        5.8969035537
  N         5.7979386776       18.9435052071        6.0077030422
  N         5.7618582162        8.1560677897       16.7565846309
  N         5.7062897688        3.7883614968       16.7934792913
  N         5.7874549792       14.5721491985        5.9668796970
  N         5.7955124756       16.7817129196        3.7986018482
  N         5.7072782671        5.9582326500       14.5770764357
  N        16.6854327629       16.8379765839       19.0021239639
  N        16.4130050961        6.0181206050        8.1280960471
  N         5.7157248702        5.9928596123       18.9496309297
  N         5.8144813285       16.7446461383        8.1681357450
  N        16.5465537783        5.9236696976        3.7604034664
  N        16.6723210386       16.8426126493       14.6323198213
  N         5.6396436201        3.7493506408        5.9186625869
  N         5.8719348217       14.6072389666       16.8103197983
  N        16.6281254329       18.9726918752        5.9780065570
  N        16.5639442972        8.1991012592       16.8389656620
  N         5.8417857689       18.9806262676       16.7921750803
  N         5.7134150154        8.1206336415        5.9359486047
  N        16.5241280552        3.8338081014       16.7199809355
  N        16.6382222194       14.5973272913        6.0324356240
  N         3.6690461549       16.7834798911       16.7855118336
  N        14.4368904833       16.7798677296        5.9923454145
  N        18.8041439544       16.7920174327        5.9923734716
  N         8.0405661639       16.8110012572       16.8218781605
  N        18.7257702281        6.0260388600       16.7435116531
  N         7.8570890970        5.8841199783        5.9294353065
  N         3.4917110880        5.9650930047        5.9701320447
  N        14.3541794702        5.9835986213       16.8183317218
  N        16.5845739993        5.9573785948       18.9559427056
  N        16.6233354878       16.8095324445        8.1817431533
  N        16.6105714005       16.7607858126        3.8114589885
  N        16.4732261341        6.1071963407       14.5823524971
  N         5.6487816867        5.9409414836        3.7578916905
  N         5.8793661946       16.7877081967       14.6180714112
  N         5.8391678747       16.8047593909       18.9875701263
  N         5.6808110512        5.9202660540        8.1266011479
  C        11.2738514813       15.7636108402       15.7871365899
  H        11.2819420758       14.9833302454       15.0165877159
  C        11.0797901548        4.8324432194        4.8416747328
  H        11.0755588699        4.0699894561        4.0534717885
  C         0.3846870452       15.7270092861        4.9291795549
  H         0.3812460679       14.9554063949        4.1497941635
  C         0.3083419712        4.9622208596       15.6745065907
  H         0.3084563518        4.1908469214       14.8950291690
  C        11.1308973573        6.9385494236       15.6657926078
  H        11.1326976159        7.6948082160       14.8727866132
  C        11.2089259934       17.8314824382        4.9371807232
  H        11.2078842869       18.6197626953        4.1746813975
  C         0.2682324273        7.0421291050        4.9323795608
  H         0.2665507617        7.8135018139        4.1526004957
  C         0.4484705262       17.8719632063       15.7440459829
  H         0.4534974714       18.6475778003       14.9685906746
  C        11.2132607854       15.6811524180        7.0154426558
  H        11.2155341478       14.8937644832        7.7787685225
  C        11.1275823032        4.8970303531       17.8487441888
  H        11.1251042850        4.1469445488       18.6487115631
  C         0.4397712807       15.7602145496       17.8626592921
  H         0.4361977399       14.9868839649       18.6403043550
  C         0.2658837378        4.9403983071        7.0604728300
  H         0.2670769857        4.1703853189        7.8412903298
  C        11.0841520001        6.9110890204        6.9901202439
  H        11.0876153812        7.6790327062        7.7723556467
  C        11.2578254864       17.8945079280       17.8853443241
  H        11.2517459290       18.6753885501       18.6554195521
  C         0.3156429170        7.0662192005       17.7997605460
  H         0.3158488271        7.8377906398       18.5792980772
  C         0.3934360206       17.8320732157        7.0544778526
  H         0.3975274184       18.6048834338        7.8327033642
  C        15.5938535608       11.4403382903       15.7482334773
  H        14.8128232994       11.4544279123       14.9792987544
  C        15.5242922916        0.5359678538        4.9071017199
  H        14.7561252898        0.5181490166        4.1243768368
  C         4.6907210734       11.3637359044        4.8976118714
  H         3.9093034038       11.3776020519        4.1281315902
  C         4.7187794363        0.5422422494       15.7308224137
  H         3.9459180730        0.5209594380       14.9529899822
  C        15.5288275949       11.3746633811        7.0409016812
  H        14.7489832297       11.3743268035        7.8112690501
  C        15.5594128463        0.5989628357       17.8260189117
  H        14.7919923620        0.5914679991       18.6097588737
  C         4.7574049061       11.3910460047       17.8305012244
  H         3.9703856005       11.3987321752       18.5942474703
  C         4.6548978967        0.5144139041        7.0192769702
  H         3.8821912407        0.5023524747        7.7974772110
  C         6.9031125259       11.3717732116       15.7475905287
  H         7.6886295878       11.3648562812       14.9822095307
  C         6.7617027778        0.5377980583        4.8948863238
  H         7.5333003597        0.5497689957        4.1155216480
  C        17.6333895769       11.3712328687        4.9166690804
  H        18.4042209659       11.3704393520        4.1364092328
  C        17.6501036647        0.6199255363       15.6871651346
  H        18.4161654284        0.6280779219       14.9025802142
  C         6.8210636516       11.3288497228        6.9962218831
  H         7.6009800531       11.3151195974        7.7671127484
  C         6.8248195184        0.5873069880       17.8546938860
  H         7.5966113935        0.6091002363       18.6335993887
  C        17.6971318277       11.4075826973       17.8730219398
  H        18.4676972385       11.3932347974       18.6533242261
  C        17.6172858854        0.5794915680        7.0432306197
  H        18.3843978665        0.5973693665        7.8267198032
  C        15.5811772780       15.7789557867       11.4206022614
  H        14.7958668179       15.0136854825       11.4338955813
  C        15.5249857002        4.8647231077        0.5263510104
  H        14.7511439760        4.0874685703        0.5155071713
  C         4.7589301735       15.7388390690        0.5617087751
  H         3.9835993030       14.9631923228        0.5517871106
  C         4.6356963789        4.8806324026       11.3626377757
  H         3.8665958234        4.0989849745       11.3724490813
  C         6.9243805336       15.7198714670       11.3889510837
  H         7.7027512410       14.9473646500       11.3854184467
  C         6.7204309051        4.9012310574        0.5359861245
  H         7.4891070478        4.1189658820        0.5377908041
  C        17.7021801663       15.7357866692        0.5859796969
  H        18.4762376929       14.9588651486        0.5855605663
  C        17.4909421146        5.0154262027       11.3601790557
  H        18.2737680840        4.2468683682       11.3653118911
  C        15.3485931391        7.0960884588       11.3504113730
  H        14.5591687558        7.8538505263       11.3423764326
  C        15.5897816072       17.8537267582        0.5868111162
  H        14.8147695808       18.6298112223        0.5878745978
  C         4.6236330396        7.0353731843        0.5314179088
  H         3.8562399504        7.8189486004        0.5290500183
  C         4.7996251421       17.8247804681       11.3963085804
  H         4.0203988225       18.5966815674       11.3998358694
  C         6.7300692504        7.0157381730       11.3409113810
  H         7.4985312275        7.7982569845       11.3309124774
  C         6.8700794575       17.8573932465        0.5840020415
  H         7.6437223467       18.6347117451        0.5937978726
  C        17.6353425425        6.9868079514        0.5502679595
  H        18.4084273645        7.7647133006        0.5607660577
  C        17.7115035250       17.8780095559       11.3929546056
  H        18.4917396094       18.6487840302       11.3804189003
 Xe        15.3508254859       10.8996716541       11.4202410338
