     409
 i =      56, E =    -5133.8848186383
  N         2.7908810923        5.2231649985       16.0204278922
  C         1.4714946628        5.4846473771       16.2898194691
  N        13.5911659116        5.1893569931        5.2045539809
  C        12.2748905424        5.4671571047        5.4738523924
  N        19.5056041774       17.5706308795       16.0198047990
  C        20.8245740683       17.3105090927       16.2933962529
  N         8.6860206823       17.5911250675        5.2183199544
  C        10.0025638158       17.3122262966        5.4850452129
  N        19.4609205764        5.1843498307        6.7551646305
  C        20.7775092645        5.4649378941        6.4897396684
  N         8.6491168430        5.2256740798       17.5827866803
  C         9.9671876149        5.4889407565       17.3092092973
  N         2.8152604767       17.6019147307        6.7603155092
  C         1.4986296558       17.3276494371        6.4883657729
  N        13.6501792583       17.5559365602       17.5794223586
  C        12.3316009092       17.2955575440       17.3066515562
  N        15.7443456389        3.0271106108        5.2061504842
  C        16.0223040915        1.7101476425        5.4747809483
  N        15.8021158170       13.8528079650       16.0164426840
  C        16.0692384663       12.5345376101       16.2854253261
  N        15.7934750496       19.7085571082       17.5808804148
  C        16.0506681887       21.0279083604       17.3056902858
  N        15.7533709086        8.8976244648        6.7557240678
  C        16.0314017357       10.2131443750        6.4842338131
  N         6.5293628180       19.7579683774        5.2147145329
  C         6.2455893606       21.0748304509        5.4781499695
  N         6.4977996414        8.9316512874       16.0219832879
  C         6.2344583709       10.2502882700       16.2942130645
  N         6.4959954193        3.0760394636       17.5902775978
  C         6.2347004374        1.7567866264       17.3189199342
  N         6.5176689459       13.8854311730        6.7580014187
  C         6.2414159914       12.5691688020        6.4872251913
  N         4.9805492217       16.0558376051        3.0523894590
  C         5.2543580743       16.3256472921        1.7358050077
  N         4.9429541366        5.2214563130       13.8728193468
  C         5.2090373597        5.4922712777       12.5546957484
  N        17.3624643861       15.9953607594       19.7316476296
  C        17.0910933931       16.2628998942       21.0499193977
  N        17.3079592817        5.1931880670        8.9084250779
  C        17.0379453773        5.4594594875       10.2265588612
  N         4.9315483068        6.7877475258       19.7336840888
  C         5.1987901005        6.5182940658       21.0521689622
  N         4.9719096038       17.5960389482        8.9175715576
  C         5.2448191581       17.3281015653       10.2348764746
  N        17.2965107045        6.7346499280        3.0474809603
  C        17.0273297714        6.4642005670        1.7300222398
  N        17.3566475245       17.5592698514       13.8669112681
  C        17.0900574831       17.2846920339       12.5495058874
  N         4.9282915714        3.0681846621        6.7571237470
  C         5.2067864019        1.7516101561        6.4878389232
  N         4.9733266025       13.8954274836       17.5868771343
  C         5.2347429890       12.5763404897       17.3143865818
  N        17.3335330350       19.7177058719        6.7575878842
  C        17.0540945912       21.0337485126        6.4887668852
  N        17.3283948346        8.8899445853       17.5797123153
  C        17.0697027854       10.2090120905       17.3050342678
  N         4.9790455112       19.7508466575       16.0249340905
  C         5.2392534042       21.0696503103       16.2990338006
  N         4.9323065741        8.9351245362        5.2072676202
  C         5.2113218598       10.2521195298        5.4740938877
  N        17.3104972916        3.0335441950       16.0136492729
  C        17.0462287207        1.7148252289       16.2842140152
  N        17.3542215405       13.8454677559        5.2115296222
  C        17.0719288905       12.5286778062        5.4764374785
  N         2.8283475516       16.0528757988       17.5888286203
  C         1.5100234961       16.3142494822       17.3155817342
  N        13.6365485231       16.0068353182        6.7659719402
  C        12.3197571144       16.2830197674        6.4973687946
  N        19.5067707526       16.0149052386        5.2068214804
  C        20.8228757647       16.2963262394        5.4734281805
  N         8.6856742595       16.0348201069       16.0206770043
  C        10.0049591131       16.2974454288       16.2899951969
  N        19.4653229239        6.7340841763       17.5831857424
  C        20.7840732275        6.4771207548       17.3085628114
  N         8.6424608156        6.7724446289        6.7602283514
  C         9.9588646810        6.4960568767        6.4898237781
  N         2.7703676866        6.7807847591        5.2129923686
  C         1.4537763872        6.5014547565        5.4799451953
  N        13.6105497936        6.7588351920       16.0194817056
  C        12.2916915024        6.4940212563       16.2903971736
  N        15.7498172146        5.1774823600       19.7286638587
  C        16.0158263498        5.4479244431       21.0473696430
  N        15.7996937982       15.9992568563        8.9126609117
  C        16.0743930223       16.2660436018       10.2297693420
  N        15.7982545514       17.5456797731        3.0472831061
  C        16.0714888803       17.2759764065        1.7304735147
  N        15.7586516286        6.7385445870       13.8681219004
  C        16.0241252048        6.4681155210       12.5499765972
  N         6.4794680185        5.2320768548        3.0515728748
  C         6.2105814113        5.5030847738        1.7343257775
  N         6.5305909884       16.0410521770       13.8724010723
  C         6.2612415881       16.3119979555       12.5549419593
  N         6.5467674084       17.6046469981       19.7370026089
  C         6.2758434072       17.3368070687       21.0553649646
  N         6.4894498733        6.7754890050        8.9141722578
  C         6.2205833046        6.5066677000       10.2321058976
  N        19.4975927835       17.5745368842        6.7590333949
  C        20.8169876576       17.3133163401        6.4879197642
  N         8.6945596758       17.5920455475       17.5753325068
  C        10.0107357310       17.3133818538       17.3055556833
  N         2.7769855356        5.2250525068        6.7685415570
  C         1.4583548732        5.4861751858        6.4959905247
  N        13.6047860388        5.1972910144       17.5702021930
  C        12.2881575222        5.4758172461       17.3036845665
  N         2.8228792123       17.6038491391       16.0291677738
  C         1.5060010106       17.3277981691       16.2980004976
  N        13.6417044934       17.5554686900        5.2031996746
  C        12.3234080923       17.2953947783        5.4784962582
  N        19.4737904129        5.1837152957       16.0221847548
  C        20.7901416793        5.4639770389       16.2904059702
  N         8.6350899363        5.2203792089        5.2018124335
  C         9.9538885762        5.4819952504        5.4729212185
  N         6.5380257300       19.7574527582       17.5790748225
  C         6.2561244772       21.0744733387       17.3138480345
  N         6.4912801742        8.9291769993        6.7610156126
  C         6.2281005351       10.2478252845        6.4889472082
  N         6.4820339259        3.0758596920        5.1984451975
  C         6.2215113949        1.7568515355        5.4711036659
  N         6.5255494098       13.8885819240       16.0273209999
  C         6.2485081195       12.5720214231       16.2968248553
  N        15.7524892728        3.0271560038       17.5685207582
  C        16.0303555503        1.7101444647       17.2999705344
  N        15.7864935204       13.8526158123        6.7559619895
  C        16.0487637963       12.5340241409        6.4847928609
  N        15.7851809689       19.7083352725        5.1949073958
  C        16.0422675504       21.0279085046        5.4694115059
  N        15.7800421541        8.8972125871       16.0172456257
  C        16.0578482416       10.2135063491       16.2857363153
  N        17.3065706642        6.7319235495       19.7327949435
  C        17.0321844919        6.4628699320       21.0494982506
  N        17.3513817783       17.5586748391        8.9108937326
  C        17.0877611561       17.2839108893       10.2286835890
  N         4.9209050478        6.7842559363        3.0519630595
  C         5.1931768146        6.5168951505        1.7338512097
  N         4.9781107484       17.5990903811       13.8732017967
  C         5.2477599709       17.3296619849       12.5554822576
  N        17.3553691679       15.9914493242        3.0509354383
  C        17.0876313990       16.2607432915        1.7321448192
  N        17.3192481808        5.1884126442       13.8641462638
  C        17.0437963436        5.4565481103       12.5472084353
  N         4.9856036783       16.0542611982       19.7380765090
  C         5.2566630432       16.3246172514       21.0552117890
  N         4.9322264359        5.2212814378        8.9167116334
  C         5.2039215354        5.4919696931       10.2338661958
  N        17.3441567671       19.7169968616       16.0199357341
  C        17.0637565775       21.0332710256       16.2874858073
  N        17.3130336834        8.8874401907        5.2035555872
  C        17.0515555289       10.2069105378        5.4733659825
  N         4.9421954791        3.0680775671       16.0323749116
  C         5.2197491411        1.7515542325       16.3025297420
  N         4.9655086029       13.8935762298        5.1988993712
  C         5.2271962240       12.5742377055        5.4702274672
  N        17.3001057446        3.0337734547        6.7633029961
  C        17.0368839007        1.7150696956        6.4918497827
  N        17.3598600890       13.8480189080       17.5715521273
  C        17.0846261021       12.5308729240       17.3016790830
  N         4.9702977243       19.7509361499        6.7677620179
  C         5.2287053088       21.0698250778        6.4927935201
  N         4.9409203123        8.9370379493       17.5781247740
  C         5.2189547293       10.2541299098       17.3103491457
  N        19.4544498769        6.7354931182        5.1960910140
  C        20.7730041440        6.4785434723        5.4722317938
  N         8.6524849189        6.7787078087       16.0245780242
  C         9.9697706678        6.5039688173       16.2929127504
  N         2.7809555003        6.7796315092       17.5752289241
  C         1.4648829745        6.5001724021       17.3056282434
  N        13.5988788121        6.7470634814        6.7594254899
  C        12.2799714198        6.4833264605        6.4892704080
  N         2.8222888200       16.0515045420        5.1995019958
  C         1.5037292484       16.3142554459        5.4705347040
  N        13.6432094844       16.0049510907       16.0194443244
  C        12.3265414295       16.2820269974       16.2890092590
  N        19.5130130243       16.0127719956       17.5741683155
  C        20.8293137676       16.2943827114       17.3087866076
  N         8.6791460064       16.0322596831        6.7707381416
  C         9.9981855324       16.2957622549        6.5000368417
  N         6.5410499660       17.6065910906        3.0569061697
  C         6.2733450882       17.3380243644        1.7378317150
  N         6.4978794812        6.7767806166       13.8700093403
  C         6.2249299747        6.5074856268       12.5528448967
  N         6.4913473390        5.2360702134       19.7372562750
  C         6.2166022407        5.5047420595       21.0539843686
  N         6.5237087100       16.0365740510        8.9166044558
  C         6.2579640128       16.3099602419       10.2342543306
  N        15.8059489485       17.5499976878       19.7326202748
  C        16.0752016548       17.2782817505       21.0498553327
  N        15.7481092826        6.7453414030        8.9127588020
  C        16.0185459786        6.4711804000       10.2292527184
  N        15.7403716883        5.1798638992        3.0471987422
  C        16.0112104524        5.4490979551        1.7292201843
  N        15.8028092195       16.0018389924       13.8679188698
  C        16.0758265439       16.2676157144       12.5503118523
 Zn        14.5045731110       14.7139837155       14.7252576798
 Br        13.1945808234       13.3978164856       13.4077414275
 Zn        14.4478422642        3.8909708952        3.9130135793
 Br        13.1319469365        2.5742834098        2.6019165589
 Zn         3.6825284589       14.7647248450        3.9021892939
 Br         2.3665171913       13.4537083722        2.5857347126
 Zn         3.6550347628        3.9287137019       14.7319537575
 Br         2.3376326130        2.6132529381       13.4206055175
 Zn         7.7905383851        8.0671966699       14.7279654669
 Br         9.1139552864        9.3777004573       13.4178226022
 Zn         7.8334355900       18.8922501895        3.9327724715
 Br         9.1496960094       20.2061967098        2.6182990071
 Zn        18.5960907445        8.0212427235        3.9014337585
 Br        19.9090550046        9.3363632589        2.5855727137
 Zn        18.6406807719       18.8626821717       14.7256296413
 Br        19.9563150203       20.1747463377       13.4106333465
 Zn         7.8080606857       14.7367140573        8.0566072583
 Br         9.1260799910       13.4225313081        9.3684151634
 Zn         7.7864109016        3.9433237948       18.8813098400
 Br         9.0960749173        2.6264653966       20.1986049607
 Zn        18.6581853938       14.7109558714       18.8637565991
 Br        19.9716201535       13.3901522616       20.1727998371
 Zn        18.6003185611        3.8965225087        8.0513046371
 Br        19.9120717901        2.5803856302        9.3664709098
 Zn        14.4598499033        8.0457216362        8.0539112492
 Br        13.0895461678        9.3329532720        9.3387964101
 Zn        14.5089029715       18.8395654105       18.8780112906
 Br        13.1998539498       20.1578854826       20.1945150877
 Zn         3.6373327279        8.0748040570       18.8677213146
 Br         2.3271332672        9.3972387278       20.1784121512
 Zn         3.6775828109       18.8867560949        8.0588249027
 Br         2.3650814410       20.2027807004        9.3743101850
 Zn        14.5002154837       14.7128279833        8.0556641360
 Br        13.2039227418       13.3835290471        9.3745321271
 Zn        14.4548447119        3.8923184057       18.8588913485
 Br        13.1367323638        2.5773596329       20.1693380339
 Zn         3.6874719420       14.7641780724       18.8818696543
 Br         2.3737500778       13.4525053185       20.2001590640
 Zn         3.6377361190        3.9303158588        8.0564969778
 Br         2.3248707053        2.6145430327        9.3713020726
 Zn         7.7850601829        8.0645817204        8.0538785178
 Br         9.0912993376        9.3821302380        9.3730213322
 Zn         7.8393587496       18.8910559957       18.8677194378
 Br         9.1588375774       20.2065167440       20.1763750667
 Zn        18.6065478037        8.0192315533       18.8802796134
 Br        19.9215941204        9.3319371573       20.1966337402
 Zn        18.6281492801       18.8664211364        8.0516742109
 Br        19.9467824512       20.1783941744        9.3645016154
 Zn        14.4835796762        8.0472471499       14.7247186189
 Br        13.1911836755        9.3682229259       13.3936439971
 Zn        14.5017716955       18.8362196625        3.8996490756
 Br        13.1903483394       20.1519985215        2.5829475063
 Zn         3.6296159436        8.0730411308        3.9195540437
 Br         2.3180189326        9.3945785223        2.6086850161
 Zn         3.6838711831       18.8888894877       14.7308857138
 Br         2.3714449342       20.2071259104       13.4179642018
 Zn         7.8185179870       14.7445516477       14.7291620895
 Br         9.1300001219       13.4250170860       13.4164168094
 Zn         7.7738521939        3.9395170098        3.9034462077
 Br         9.0820445759        2.6200231325        2.5874461840
 Zn        18.6540106602       14.7095617607        3.9230073290
 Br        19.9649045475       13.3899091676        2.6096958612
 Zn        18.6102348449        3.8952491586       14.7245238881
 Br        19.9235942575        2.5782879892       13.4117289141
 Zn         5.7208422497        6.0055007456       16.8079169613
 Zn        16.5801089804       16.7768486456       16.7994225531
 Zn        16.5182839637        5.9578470884        5.9821877623
 Zn         5.7477657143       16.8239225783        5.9904142819
 Zn         5.7023081489        6.0038744922        5.9879098084
 Zn        16.5689564317       16.7761391998        5.9827296961
 Zn         5.7592150301       16.8251582044       16.8089650023
 Zn        16.5414815715        5.9570491004       16.7981607127
  N         3.5327371921        6.0056377910       16.7979397260
  N        14.3411381686        5.9646913708        5.9824648214
  N        18.7628324288       16.7859741445       16.7946141803
  N         7.9358549382       16.8157626966        5.9954527450
  N        18.7104256912        5.9540699382        5.9726212098
  N         7.9040587682        6.0051471281       16.8051718711
  N         3.5655391887       16.8294660836        5.9802110938
  N        14.3936917896       16.7764750812       16.8005063604
  N        16.5185552023        3.7767441261        5.9854573472
  N        16.5828077519       14.5967297675       16.7943105055
  N        16.5748597531       18.9658989769       16.8026680460
  N        16.5292427101        8.1454644331        5.9799057825
  N         5.7562183385       19.0079656485        5.9946275996
  N         5.7158294030        8.1880296901       16.7989672231
  N         5.7153181383        3.8188340140       16.8115584841
  N         5.7452831066       14.6364615908        5.9784779052
  N         5.7589607240       16.8307910717        3.8014908285
  N         5.7221149118        5.9986973350       14.6185629549
  N        16.5847728151       16.7738655169       18.9852633920
  N        16.5282049819        5.9709792825        8.1637660764
  N         5.7134317851        6.0120783408       18.9888523413
  N         5.7459409564       16.8149655871        8.1704510234
  N        16.5181510515        5.9575273358        3.7942805127
  N        16.5775542671       16.7831673918       14.6142289288
  N         5.7010034757        3.8186147756        5.9769774632
  N         5.7534156798       14.6388041126       16.8079405640
  N        16.5652313184       18.9660061621        5.9746230280
  N        16.5491121056        8.1465395068       16.8003306193
  N         5.7639527502       19.0078689087       16.7994150934
  N         5.7076669625        8.1858618586        5.9856622865
  N        16.5283405732        3.7766440121       16.7907273937
  N        16.5753685058       14.5954692556        5.9856819972
  N         3.5726359297       16.8319099161       16.8102277665
  N        14.3859457140       16.7770643126        5.9826581132
  N        18.7555424155       16.7891841423        5.9843414376
  N         7.9435605073       16.8174925239       16.7980779340
  N        18.7228896409        5.9530861448       16.8047480987
  N         7.8915569648        6.0001547372        5.9807089554
  N         3.5203010195        6.0072452644        5.9922124500
  N        14.3543727602        5.9741004542       16.7937001141
  N        16.5306050175        5.9543281788       18.9838827602
  N        16.5720670578       16.7816510791        8.1650183537
  N        16.5753685227       16.7689636096        3.7958783375
  N        16.5416992461        5.9644250439       14.6130408741
  N         5.6994902405        6.0070642831        3.7987599161
  N         5.7542780428       16.8196603026       14.6198981474
  N         5.7660762440       16.8288263582       18.9909096009
  N         5.7101121353        5.9980484416        8.1688593677
  C        11.1620420032       15.7406548809       15.7391912939
  H        11.1560697938       14.9656767157       14.9631974997
  C        11.1111518172        4.9249819496        4.9234065369
  H        11.1061455972        4.1496794661        4.1477122024
  C         0.3467401915       15.7565771244        4.9212397212
  H         0.3528826367       14.9819004392        4.1448762094
  C         0.3153631350        4.9260136318       15.7390946608
  H         0.3229217428        4.1519858024       14.9621966144
  C        11.1325625607        7.0490984380       15.7425372581
  H        11.1344092133        7.8249942114       14.9674919215
  C        11.1653656259       17.8530518869        4.9314048847
  H        11.1692346996       18.6276585659        4.1548724293
  C         0.2899514557        7.0401944076        4.9265745067
  H         0.2842238611        7.8163025431        4.1516185956
  C         0.3423890477       17.8693206787       15.7463672192
  H         0.3376535277       18.6453074925       14.9713301384
  C        11.1566897236       15.7405473802        7.0491967587
  H        11.1526465273       14.9658371264        7.8254012948
  C        11.1258760090        4.9321430200       17.8556733142
  H        11.1229576673        4.1557874833       18.6304281514
  C         0.3526567909       15.7558216358       17.8631888031
  H         0.3578901307       14.9818141532       18.6402010064
  C         0.3012993055        4.9272548954        7.0440981637
  H         0.3071267391        4.1536757065        7.8214784147
  C        11.1222818265        7.0390359397        7.0394753716
  H        11.1282278160        7.8142033579        7.8153120653
  C        11.1750037046       17.8539757929       17.8560610179
  H        11.1811560581       18.6290848926       18.6320108141
  C         0.2999500232        7.0385929089       17.8567702796
  H         0.2921237059        7.8141434889       18.6322955780
  C         0.3344122373       17.8706885224        7.0373139468
  H         0.3289061683       18.6463787654        7.8126048211
  C        15.5158323178       11.3765143699       15.7339169560
  H        14.7420088673       11.3802847434       14.9567078316
  C        15.4832203832        0.5456311231        4.9220542671
  H        14.7085215137        0.5400068032        4.1457778562
  C         4.6699385055       11.4160063289        4.9223692740
  H         3.8944395960       11.4203696042        4.1469010130
  C         4.6789641096        0.5869951175       15.7523036479
  H         3.9022619429        0.5809845215       14.9779716057
  C        15.4857670092       11.3772945534        7.0293061001
  H        14.7037839659       11.3840377091        7.7979730421
  C        15.4907902057        0.5456663437       17.8521899492
  H        14.7155794964        0.5399774882       18.6279683726
  C         4.6780765308       11.4179580398       17.8625898188
  H         3.9036637671       11.4221651309       18.6391631633
  C         4.6673083985        0.5868878771        7.0389412847
  H         3.8911714350        0.5803934011        7.8137918644
  C         6.7905182110       11.4085243022       15.7454882851
  H         7.5654828270       11.4046530752       14.9694333797
  C         6.7820381525        0.5996531129        4.9241324376
  H         7.5565561656        0.6063028658        4.1476718679
  C        17.6141231779       11.3638285574        4.9279391126
  H        18.3930933967       11.3574096709        4.1559705438
  C        17.6028738067        0.5572689944       15.7347161622
  H        18.3766822982        0.5627357014       14.9575162175
  C         6.7845026497       11.4058367594        7.0375698589
  H         7.5598497828       11.4016456322        7.8132754652
  C         6.7940388508        0.5993340163       17.8666166754
  H         7.5686670195        0.6058260246       18.6429273792
  C        17.6262820258       11.3672190763       17.8534892319
  H        18.4001647879       11.3628198679       18.6305663499
  C        17.5929463361        0.5576066995        7.0419799133
  H        18.3659234336        0.5627667004        7.8200203960
  C        15.5275390099       15.7146296089       11.3906965705
  H        14.7532870991       14.9378612985       11.3915927514
  C        15.4631685499        4.8993928908        0.5675203905
  H        14.6870601500        4.1244965630        0.5664456848
  C         4.7040184781       15.7772736781        0.5751864704
  H         3.9258318837       15.0044144111        0.5745872661
  C         4.6557377910        4.9431340434       11.3955480229
  H         3.8792082861        4.1686179520       11.3974736417
  C         6.8087844114       15.7603479012       11.3943284745
  H         7.5825526749       14.9830568440       11.3938799475
  C         6.7639438232        4.9546670608        0.5751511318
  H         7.5397644720        4.1794274718        0.5767513122
  C        17.6388044491       15.7118926407        0.5713388288
  H        18.4137187752       14.9357915122        0.5717868907
  C        17.5919460321        4.9092825243       11.3849625483
  H        18.3692438050        4.1355597349       11.3818468283
  C        15.4677003200        7.0154354847       11.3914444841
  H        14.6873443026        7.7857674923       11.3953131967
  C        15.5236915893       17.8269118096        0.5698172748
  H        14.7485495198       18.6028263787        0.5692693699
  C         4.6452594284        7.0664552395        0.5721083019
  H         3.8687988243        7.8410198135        0.5705999222
  C         4.6984278629       17.8807699308       11.3955167273
  H         3.9250691827       18.6584495488       11.3958471532
  C         6.7727252968        7.0568013495       11.3913483164
  H         7.5488046192        7.8317632202       11.3892708402
  C         6.8261450505       17.8851942786        0.5769281393
  H         7.6040628609       18.6582803804        0.5773832107
  C        17.5795446081        7.0133053372        0.5705944007
  H        18.3554965202        7.7884220314        0.5719004423
  C        17.6390895313       17.8338366709       11.3883864996
  H        18.4135324162       18.6104339500       11.3871873353
 Xe        16.6942374733       10.5681316618       10.5918709685
