     409
 i =      56, E =    -5133.8849050262
  N         2.9698326035        5.2440949537       15.9965822916
  C         1.6485794265        5.5040532450       16.2577607825
  N        13.7789106590        5.1310325133        5.1427177535
  C        12.4623701016        5.4080825382        5.4175654337
  N        19.6170841895       17.5438447193       15.9881415724
  C        20.9350152152       17.2958223061       16.2770636926
  N         8.8096014911       17.5863654248        5.2443566269
  C        10.1263382471       17.2936560105        5.4940581396
  N        19.6450987579        5.1608718929        6.7229558977
  C        20.9619588221        5.4572421902        6.4757016284
  N         8.8221371608        5.2451844082       17.5882568255
  C        10.1398251518        5.4896910084       17.2941262370
  N         2.9364319141       17.5717955751        6.7847814299
  C         1.6221187008       17.2879348921        6.5094693580
  N        13.7647718606       17.5790495773       17.5839336469
  C        12.4426608442       17.3203273553       17.3236749173
  N        15.9436862209        2.9824294484        5.1414437549
  C        16.2090342931        1.6653250613        5.4192531568
  N        15.8774033685       13.8439320944       16.0064184823
  C        16.1533534402       12.5251585788       16.2684738683
  N        15.9317169423       19.7107202957       17.5559391758
  C        16.2007271044       21.0263151639       17.2757954936
  N        15.9276481595        8.8448179875        6.6992249678
  C        16.1955505257       10.1639476453        6.4348991304
  N         6.6423361504       19.7409155195        5.2259200821
  C         6.3659760472       21.0588240145        5.4864061341
  N         6.6653317575        8.9615370692       16.0481145623
  C         6.3871105306       10.2772140036       16.3199256936
  N         6.6742518609        3.0974228775       17.5682637697
  C         6.3977215372        1.7799032466       17.3066808589
  N         6.6555844712       13.8744630272        6.8155379978
  C         6.3938173987       12.5571561188        6.5332531906
  N         5.1151237749       16.0251691447        3.0811343036
  C         5.3787059314       16.3060513611        1.7642512390
  N         5.1349028139        5.2716571212       13.8631256421
  C         5.4095712296        5.5383747211       12.5461771179
  N        17.4789598915       15.9875019152       19.7063876041
  C        17.2105636754       16.2509087169       21.0261375811
  N        17.4883330077        5.1282369082        8.8619143948
  C        17.2241524542        5.4082810612       10.1788237429
  N         5.0815428245        6.7765554712       19.7306982881
  C         5.3436935723        6.4972657708       21.0481571809
  N         5.0927118652       17.6026563277        8.9419245949
  C         5.3614651066       17.3404708360       10.2618569140
  N        17.4977558259        6.6950930030        2.9959738454
  C        17.2268575279        6.4320114563        1.6773659091
  N        17.4456123398       17.5385662302       13.8442422334
  C        17.1732859999       17.2642060499       12.5281073787
  N         5.0928831671        3.0656841736        6.7634017029
  C         5.3538113684        1.7452729843        6.4947167962
  N         5.0837376179       13.9092058282       17.6112786854
  C         5.3579463335       12.5923651998       17.3392537967
  N        17.4729994283       19.6699261849        6.7360510697
  C        17.2115908998       20.9867799598        6.4545523101
  N        17.4693952213        8.8872887644       17.5281108152
  C        17.1886780653       10.2038730455       17.2650369945
  N         5.0920868201       19.7792026190       16.0513888990
  C         5.3704382448       21.0973109797       16.3103109980
  N         5.1326671768        8.9250372920        5.1979165481
  C         5.3940590159       10.2408096235        5.4852458578
  N        17.4941969064        3.0190760626       15.9771784191
  C        17.2189562875        1.7019731760       16.2475943157
  N        17.4851702325       13.8099459001        5.1747032751
  C        17.2125897844       12.4907682514        5.4346313162
  N         2.9351928470       16.0666360661       17.6117144268
  C         1.6173954854       16.3192583388       17.3264130912
  N        13.7625551834       15.9460078137        6.7214367547
  C        12.4452721033       16.2334069763        6.4678553767
  N        19.6397989327       15.9711879446        5.1949385157
  C        20.9544825066       16.2498133902        5.4752250864
  N         8.7881583224       16.0639449106       16.0602223878
  C        10.1078960659       16.3246983326       16.3249913332
  N        19.6342489607        6.7529571642       17.5283355923
  C        20.9545724046        6.4960709964       17.2612126883
  N         8.8396374973        6.7349019356        6.7179379040
  C        10.1528285732        6.4468414476        6.4439658297
  N         2.9570477545        6.7942972089        5.2300674886
  C         1.6403263462        6.5108058946        5.4909615958
  N        13.7795802360        6.7098383224       15.9460817341
  C        12.4617358467        6.4562062440       16.2319220064
  N        15.9355822079        5.1716268546       19.6746716327
  C        16.2091822163        5.4319658862       20.9928155833
  N        15.8971489219       15.9634741002        8.8894043240
  C        16.1589248228       16.2408577312       10.2081256128
  N        15.9222466068       17.5190713581        3.0307580022
  C        16.1949729533       17.2551997160        1.7125731350
  N        15.9535198852        6.7285781495       13.8111566259
  C        16.2206177764        6.4480666443       12.4950737618
  N         6.6268252233        5.1961665421        3.0415023374
  C         6.3531994730        5.4689352760        1.7256888465
  N         6.6406581008       16.0709585915       13.9076765889
  C         6.3730292135       16.3369693605       12.5892871138
  N         6.6474680270       17.6234102081       19.7675866334
  C         6.3829923951       17.3436204840       21.0852033927
  N         6.7125368620        6.7862225564        8.9008616834
  C         6.4365010359        6.5326160527       10.2209460029
  N        19.6199996378       17.5218837448        6.7564798158
  C        20.9407489907       17.2623489373        6.4941063711
  N         8.8041448729       17.6228847395       17.6121976925
  C        10.1199384405       17.3424115208       17.3384550395
  N         2.9623997013        5.2422004091        6.7887671921
  C         1.6435116603        5.4970440304        6.5085271308
  N        13.7786165225        5.1764483244       17.5237923332
  C        12.4610581409        5.4551922772       17.2618748130
  N         2.9326809650       17.6235304503       16.0566307864
  C         1.6156517121       17.3352382976       16.3110354170
  N        13.7646036484       17.5181548972        5.1832994398
  C        12.4467656680       17.2601549205        5.4636272196
  N        19.6520785001        5.1926297420       15.9772510541
  C        20.9670877288        5.4782939929       16.2476449203
  N         8.8162497225        5.1812149275        5.1602127850
  C        10.1388293697        5.4334153255        5.4261054575
  N         6.6466707598       19.7815889974       17.6087312225
  C         6.3844312052       21.0989991531       17.3278575518
  N         6.6961075406        8.9169208899        6.7462423223
  C         6.4126408081       10.2357782675        6.4980888827
  N         6.6377074845        3.0542899536        5.1979291850
  C         6.3639230835        1.7390630411        5.4736666617
  N         6.6381273095       13.9161441921       16.0552955808
  C         6.3733888475       12.5977665856       16.3235749298
  N        15.9341047389        3.0252953889       17.5288067929
  C        16.2025952142        1.7069252033       17.2627113868
  N        15.9284408557       13.8016026560        6.7300888209
  C        16.1969469238       12.4852541294        6.4505395967
  N        15.9212009203       19.6666277457        5.1773858970
  C        16.1979082095       20.9845885704        5.4372243020
  N        15.9071952616        8.8832884395       15.9788690527
  C        16.1668117863       10.2023105387       16.2556560430
  N        17.4871267079        6.7304503175       19.6803419574
  C        17.2224390321        6.4497278755       20.9968250091
  N        17.4563213279       17.5161261618        8.8908396303
  C        17.1785203300       17.2525908496       10.2076878648
  N         5.0783252636        6.7589732039        3.0485127936
  C         5.3411479184        6.4882309656        1.7294161277
  N         5.0840820397       17.6261258307       13.9008087851
  C         5.3566725178       17.3519661490       12.5840281037
  N        17.4815149148       15.9658207762        3.0260200934
  C        17.2109155115       16.2395634856        1.7085956867
  N        17.5006475672        5.1643969610       13.8198070820
  C        17.2302000523        5.4262069064       12.5003876486
  N         5.0929645481       16.0647896031       19.7642982838
  C         5.3686287137       16.3262266824       21.0826407757
  N         5.1500573866        5.2370612598        8.9109145028
  C         5.4177675122        5.5198536340       10.2261770538
  N        17.4762410105       19.7003058098       15.9895351536
  C        17.2109958324       21.0200172753       16.2549079983
  N        17.4796562363        8.8531589927        5.1411738409
  C        17.2095160158       10.1694436618        5.4177759100
  N         5.1265378908        3.0956546395       16.0053477730
  C         5.3864192431        1.7782935912       16.2868875042
  N         5.1095155160       13.8785343148        5.2509036979
  C         5.3819366779       12.5607159902        5.5138452735
  N        17.4996380559        2.9855177818        6.6976736399
  C        17.2242423241        1.6674554227        6.4355653470
  N        17.4513827541       13.8417548536       17.5447591804
  C        17.1797759648       12.5247127959       17.2735174330
  N         5.0830771224       19.7450482889        6.7784264128
  C         5.3503308850       21.0626517016        6.5022101035
  N         5.1043276190        8.9503886283       17.5995784945
  C         5.3691462042       10.2703277778       17.3336035944
  N        19.6415930288        6.7170312445        5.1661757471
  C        20.9593607407        6.4723088368        5.4591973210
  N         8.8231042844        6.7853569021       16.0168706773
  C        10.1405460031        6.4935484095       16.2666176875
  N         2.9492438103        6.7984387624       17.5529640664
  C         1.6352231578        6.5194838514       17.2734699740
  N        13.7922372769        6.6799758990        6.7060310435
  C        12.4730505156        6.4195114079        6.4375173404
  N         2.9574591876       16.0182736263        5.2271562578
  C         1.6362348344       16.2741430994        5.4920459037
  N        13.7410023977       16.0205853035       16.0296969056
  C        12.4279914621       16.3030108284       16.3095701797
  N        19.6198363000       15.9898596857       17.5442345266
  C        20.9368652495       16.2806781681       17.2930984171
  N         8.8065756982       16.0172260503        6.7869381671
  C        10.1245192293       16.2681907367        6.4999305309
  N         6.6659746157       17.5853290881        3.0858265129
  C         6.3917672570       17.3241513335        1.7673307438
  N         6.6839146594        6.8345372691       13.8629873677
  C         6.4230921359        6.5564552341       12.5444147201
  N         6.6411516475        5.2251078606       19.7287915222
  C         6.3600843126        5.4824497234       21.0460805441
  N         6.6531628580       16.0509808271        8.9525984571
  C         6.3793622268       16.3268241643       10.2684046498
  N        15.9329387807       17.5525727585       19.7157489503
  C        16.1997146646       17.2712760559       21.0316041068
  N        15.9445724154        6.6939464080        8.8563218430
  C        16.2157859377        6.4308318949       10.1746547285
  N        15.9435206429        5.1377691593        2.9894637304
  C        16.2125991753        5.4148566118        1.6730077602
  N        15.8756770105       15.9964173456       13.8506138045
  C        16.1494832079       16.2566068055       12.5311120992
 Zn        14.5775305182       14.7174144486       14.7255198749
 Br        13.2488180729       13.4089663069       13.4196070024
 Zn        14.6499101151        3.8429631908        3.8468737772
 Br        13.3281166137        2.5328470183        2.5349860271
 Zn         3.8310290088       14.7266845851        3.9433612360
 Br         2.5211767615       13.4107199003        2.6247709082
 Zn         3.8457076260        3.9606370433       14.7086621347
 Br         2.5404738104        2.6488525541       13.3825286008
 Zn         7.9658890034        8.1143526636       14.7558621769
 Br         9.3438131924        9.4339224442       13.5098236430
 Zn         7.9521219574       18.8802881012        3.9508485521
 Br         9.2728659356       20.1886699149        2.6367426092
 Zn        18.7793869886        7.9970663455        3.8559267425
 Br        20.0941726093        9.3142039514        2.5445053776
 Zn        18.7546871821       18.8267494001       14.6918674704
 Br        20.0679488684       20.1328593711       13.3677225259
 Zn         7.9451165444       14.7492838445        8.1052238160
 Br         9.2766976361       13.4496334123        9.4185458918
 Zn         7.9554077759        3.9522432610       18.8753746690
 Br         9.2666574129        2.6312811268       20.1861368956
 Zn        18.7609191322       14.6941649795       18.8296492934
 Br        20.0762490338       13.3716573975       20.1358302902
 Zn        18.7845741974        3.8450454637        7.9986450119
 Br        20.1040539098        2.5324552909        9.3103788558
 Zn        14.6504472354        7.9770060180        7.9977395323
 Br        13.3425037970        9.2951022918        9.3153020224
 Zn        14.6527867865       18.8649405955       18.8697902946
 Br        13.3560132958       20.1886277665       20.1926288880
 Zn         3.7946476541        8.0743638722       18.8714590690
 Br         2.4748113687        9.3814450758       20.1879379774
 Zn         3.7889477763       18.8798707285        8.0678207515
 Br         2.4721491096       20.1988144683        9.3765267951
 Zn        14.6224768525       14.6577022427        8.0153380721
 Br        13.3160398934       13.3351651608        9.3305237198
 Zn        14.6386083823        3.8876164401       18.8182926200
 Br        13.3194902615        2.5776840699       20.1332840302
 Zn         3.7945573121       14.7733742074       18.9046765515
 Br         2.4840309170       13.4572734161       20.2216903635
 Zn         3.8356333178        3.9494089394        8.0706394059
 Br         2.5243956837        2.6465795442        9.4010300935
 Zn         8.0098260383        8.0522397473        8.0104262235
 Br         9.3788788039        9.3579386264        9.2792322414
 Zn         7.9422239704       18.9200981907       18.9010362515
 Br         9.2616038206       20.2287086699       20.2165970852
 Zn        18.7668926057        8.0374472070       18.8228971940
 Br        20.0749944754        9.3553514433       20.1394611484
 Zn        18.7521258898       18.8145949121        8.0442490084
 Br        20.0620310209       20.1304581121        9.3608230416
 Zn        14.6467180903        8.0101634225       14.6631450956
 Br        13.3444171803        9.3259852599       13.3371718286
 Zn        14.6229462793       18.8095322004        3.8913815525
 Br        13.3093897057       20.1267880512        2.5791473583
 Zn         3.8156671498        8.0701770444        3.9217504371
 Br         2.4982202458        9.3908458425        2.6159999652
 Zn         3.7916637194       18.9210868958       14.7658803428
 Br         2.4784142415       20.2350378201       13.4498466068
 Zn         7.9287853935       14.7751383667       14.7667869419
 Br         9.2472496217       13.4665728551       13.4490453571
 Zn         7.9214119651        3.8959001549        3.8879398623
 Br         9.2079941273        2.5669953365        2.5595928553
 Zn        18.7810552447       14.6804302052        3.8925618875
 Br        20.1034287432       13.3787975455        2.5724039540
 Zn        18.7960027698        3.8850554270       14.6962095459
 Br        20.1159889097        2.5643855534       13.3915994273
 Zn         5.8945948054        6.0296727560       16.8002469386
 Zn        16.6786339170       16.7719251732       16.7754682794
 Zn        16.7163430510        5.9073584676        5.9192722601
 Zn         5.8825108381       16.8148273159        6.0159049458
 Zn         5.8961816182        5.9968230336        5.9709345411
 Zn        16.7016395226       16.7304376305        5.9564117250
 Zn         5.8594309398       16.8503029259       16.8349505987
 Zn        16.7132139834        5.9523111776       16.7450637930
  N         3.7065328259        6.0256833363       16.7797914887
  N        14.5320691541        5.9017535043        5.9226693803
  N        18.8713400283       16.7558468633       16.7564453948
  N         8.0617345892       16.8127954223        6.0253735203
  N        18.8972281663        5.9249310055        5.9320727182
  N         8.0763940144        6.0279494461       16.8141204080
  N         3.6937819337       16.8021637291        6.0082147998
  N        14.4991634103       16.7937055511       16.8016889986
  N        16.7239564810        3.7302365511        5.9158316829
  N        16.6635037093       14.5893085630       16.7778514305
  N        16.7030111853       18.9585408546       16.7766353181
  N        16.7047013891        8.1016462556        5.9175289515
  N         5.8656666985       18.9964531954        6.0067347775
  N         5.8880481459        8.2096977833       16.8220472136
  N         5.9045908626        3.8435777502       16.7820989037
  N         5.8799800381       14.6236422564        6.0371289772
  N         5.8932158283       16.8005021542        3.8304199420
  N         5.9059463295        6.0555030311       14.6100086336
  N        16.7062224600       16.7747003742       18.9641094246
  N        16.7145784297        5.9068795780        8.1117317452
  N         5.8671573697        6.0072417451       18.9829679785
  N         5.8739595116       16.8231488200        8.2007072218
  N        16.7209557191        5.9131274469        3.7391977615
  N        16.6604618730       16.7710688337       14.5939589222
  N         5.8693138693        3.8070289408        5.9789394292
  N         5.8586903462       14.6599822535       16.8341348921
  N        16.6929971829       18.9210296620        5.9622244215
  N        16.6944855692        8.1385240104       16.7493967706
  N         5.8650366443       19.0338887478       16.8354507273
  N         5.9200111531        8.1745671115        5.9623690027
  N        16.7159296243        3.7687266829       16.7521203046
  N        16.7077605825       14.5520535009        5.9572608910
  N         3.6803550053       16.8538919260       16.8418779759
  N        14.5106413346       16.7248155153        5.9459403538
  N        18.8834482326       16.7422017412        5.9711793012
  N         8.0491224110       16.8483175089       16.8381094581
  N        18.8965502845        5.9652100607       16.7524430881
  N         8.0812956284        5.9674652474        5.9411239225
  N         3.7066333660        6.0246609133        6.0132703056
  N        14.5259013572        5.9373553138       16.7295978658
  N        16.7086709116        5.9561080333       18.9304694030
  N        16.6815653244       16.7360394368        8.1433600065
  N        16.7015161556       16.7400386780        3.7747813178
  N        16.7275028927        5.9510606541       14.5619512406
  N         5.8563026465        5.9776239179        3.7915596768
  N         5.8611471089       16.8504097819       14.6510498946
  N         5.8671452778       16.8485565475       19.0196405872
  N         5.9331216165        6.0042727279        8.1590360147
  C        11.2593720113       15.7630172278       15.7690069262
  H        11.2460314357       14.9862901145       14.9948376696
  C        11.2927502988        4.8723382229        4.8709861557
  H        11.2811151825        4.0993891149        4.0930127626
  C         0.4848085897       15.7132642663        4.9333725909
  H         0.5000108256       14.9397769384        4.1560597249
  C         0.4961202622        4.9419258543       15.7025755155
  H         0.5092373195        4.1658506093       14.9277273075
  C        11.3016862208        7.0148967103       15.6904787412
  H        11.3013701834        7.7806215265       14.9053633628
  C        11.2874603627       17.8318914474        4.9343621808
  H        11.2885740437       18.6155664850        4.1671171878
  C         0.4782215037        7.0424508030        4.9267889333
  H         0.4758971467        7.8174646128        4.1507810850
  C         0.4540690736       17.8661461769       15.7451837031
  H         0.4521910328       18.6424506377       14.9704762263
  C        11.2841709215       15.6939565537        7.0265513816
  H        11.2829926763       14.9102124072        7.7937904247
  C        11.3000786445        4.9288761827       17.8336802089
  H        11.2997978536        4.1636924598       18.6193696163
  C         0.4583118988       15.7511767464       17.8605306325
  H         0.4602798841       14.9766490414       18.6370733444
  C         0.4843076855        4.9304569985        7.0445983240
  H         0.4867263219        4.1568042971        7.8219357618
  C        11.3207876078        6.9798531808        6.9927002532
  H        11.3320056186        7.7529524106        7.7704974929
  C        11.2898179607       17.8818083741       17.8799422131
  H        11.3030260569       18.6585793507       18.6540801240
  C         0.4666697445        7.0587101569       17.8158317138
  H         0.4536646832        7.8341799295       18.5913342428
  C         0.4521060165       17.8227738077        7.0534130707
  H         0.4370696477       18.5965453597        7.8305578771
  C        15.6047960655       11.3634857889       15.7181666238
  H        14.8228610060       11.3627437652       14.9491154503
  C        15.6544429222        0.5033922494        4.8775516919
  H        14.8790921765        0.5005491840        4.1018352650
  C         4.8372578289       11.4044667025        4.9506105542
  H         4.0618700310       11.4106221750        4.1749036613
  C         4.8300739081        0.6161357957       15.7473621752
  H         4.0562278185        0.6133677962       14.9701439036
  C        15.6466700993       11.3212827762        6.9924587898
  H        14.8722316126       11.3161489159        7.7690026060
  C        15.6525208023        0.5500702930       17.8196123223
  H        14.8784994117        0.5550913105       18.5966268358
  C         4.8135967993       11.4274380580       17.8858422112
  H         4.0378755970       11.4215342495       18.6610968610
  C         4.8027929326        0.5866135961        7.0486343370
  H         4.0295869743        0.5902875983        7.8264340902
  C         6.9303419040       11.4414814867       15.7723794859
  H         7.7082577506       11.4478913217       14.9993455123
  C         6.9113579129        0.5763720289        4.9270873258
  H         7.6833532506        0.5730801852        4.1480607271
  C        17.7598693959       11.3333230933        4.8754904550
  H        18.5349780424       11.3379117147        4.0995652094
  C        17.7624915271        0.5374605015       15.6994031931
  H        18.5354751722        0.5321078805       14.9214164710
  C         6.9518498002       11.3927624971        7.0666814909
  H         7.7292955765       11.3861631491        7.8400410384
  C         6.9388673312        0.6211959619       17.8688819110
  H         7.7114854457        0.6249847236       18.6473408519
  C        17.7379873269       11.3643960916       17.8144996447
  H        18.5204803338       11.3644553173       18.5829574937
  C        17.7672579822        0.5085825197        6.9953421472
  H        18.5412169558        0.5109278924        7.7723951355
  C        15.6005213430       15.7031703863       11.3709850546
  H        14.8202863756       14.9324266817       11.3729989016
  C        15.6622202579        4.8721524084        0.5097913703
  H        14.8873074398        4.0959826966        0.5043628567
  C         4.8247661202       15.7658909855        0.6011716604
  H         4.0498476915       14.9897961229        0.5977601265
  C         4.8636348434        4.9803321932       11.3885337377
  H         4.0878088824        4.2051519935       11.3922746371
  C         6.9267265381       15.7830785246       11.4325972526
  H         7.7040992151       15.0094681550       11.4390083107
  C         6.9034442581        4.9227523332        0.5642404927
  H         7.6768437594        4.1450852971        0.5622285611
  C        17.7584734614       15.6938090207        0.5445942560
  H        18.5317284056       14.9160826902        0.5405236640
  C        17.7732821261        4.8637780407       11.3423941188
  H        18.5438714966        4.0834369647       11.3464246026
  C        15.6722029267        6.9930338253       11.3319330628
  H        14.9016862172        7.7735602837       11.3273493890
  C        15.6486504734       17.8137765792        0.5547042609
  H        14.8749192588       18.5910810856        0.5583944379
  C         4.7914690524        7.0416947161        0.5703016606
  H         4.0172689157        7.8185841775        0.5722584325
  C         4.8091677375       17.8955294723       11.4191393830
  H         4.0329929832       18.6703242525       11.4132526314
  C         6.9799253114        7.0939944485       11.3802951493
  H         7.7583767238        7.8663053459       11.3756604383
  C         6.9356197325       17.8846704458        0.6087126949
  H         7.7094562630       18.6618306497        0.6133579840
  C        17.7736595310        6.9916526586        0.5201304497
  H        18.5467082873        7.7695906722        0.5248532937
  C        17.7285644659       17.8048364827       11.3664622434
  H        18.5091672928       18.5752439516       11.3643380085
 Xe         6.4205058563       11.2145244894       11.3806120767
