 DBCSR| CPU Multiplication driver                                           XSMM (U)
 DBCSR| Multrec recursion limit                                              512 (U)
 DBCSR| Multiplication stack size                                           1000 (D)
 DBCSR| Maximum elements for images                                    UNLIMITED (U)
 DBCSR| Multiplicative factor virtual images                                   1 (U)
 DBCSR| Use multiplication densification                                       T (D)
 DBCSR| Multiplication size stacks                                             3 (U)
 DBCSR| Use memory pool for CPU allocation                                     F (U)
 DBCSR| Number of 3D layers                                               SINGLE (U)
 DBCSR| Use MPI memory allocation                                              F (U)
 DBCSR| Use RMA algorithm                                                      F (U)
 DBCSR| Use Communication thread                                               T (U)
 DBCSR| Communication thread load                                             87 (D)
 DBCSR| MPI: My process id                                                     0
 DBCSR| MPI: Number of processes                                             144
 DBCSR| OMP: Current number of threads                                         1
 DBCSR| OMP: Max number of threads                                             1
 DBCSR| Split modifier for TAS multiplication algorithm                  1.0E+00 (U)


  **** **** ******  **  PROGRAM STARTED AT               2024-09-13 03:17:43.414
 ***** ** ***  *** **   PROGRAM STARTED ON                              nid03597
 **    ****   ******    PROGRAM STARTED BY                              bsertcan
 ***** **    ** ** **   PROGRAM PROCESS ID                                 11393
  **** **  *******  **  PROGRAM STARTED IN /scratch/snx3000/bsertcan/MFU_sp/rsca
                                           n/cl/xe/rep24

 CP2K| version string:                 CP2K version 2024.2 (Development Version)
 CP2K| source code revision number:                                  git:42d1e6b
 CP2K| cp2kflags: omp libint fftw3 libxc parallel scalapack xsmm                
 CP2K| is freely available from                            https://www.cp2k.org/
 CP2K| Program compiled at                         Tue Sep  3 22:59:39 CEST 2024
 CP2K| Program compiled on                                              daint106
 CP2K| Program compiled for                                                local
 CP2K| Data directory path                             /users/bsertcan/cp2k/data
 CP2K| Input file name                                                 input.inp

 GLOBAL| Force Environment number                                              1
 GLOBAL| Basis set file name                                    BASIS_MOLOPT_UZH
 GLOBAL| Potential file name                                       POTENTIAL_UZH
 GLOBAL| MM Potential file name                                     MM_POTENTIAL
 GLOBAL| Coordinate file name                                         rep_24.xyz
 GLOBAL| Method name                                                        CP2K
 GLOBAL| Project name                                                 Replica_24
 GLOBAL| Run type                                                         ENERGY
 GLOBAL| FFT library                                                       FFTW3
 GLOBAL| Diagonalization library                                       ScaLAPACK
 GLOBAL| DGEMM library                                                      BLAS
 GLOBAL| Orthonormality check for eigenvectors                          DISABLED
 GLOBAL| Matrix multiplication library                                 ScaLAPACK
 GLOBAL| All-to-all communication in single precision                          F
 GLOBAL| FFTs using library dependent lengths                                  F
 GLOBAL| Grid backend                                                       AUTO
 GLOBAL| Global print level                                                  LOW
 GLOBAL| MPI I/O enabled                                                       T
 GLOBAL| Total number of message passing processes                           144
 GLOBAL| Number of threads for this process                                    1
 GLOBAL| This output is from process                                           0
 GLOBAL| Stack size for threads created by OpenMP (OMP_STACKSIZE)             5M
 GLOBAL| CPU model name                Intel(R) Xeon(R) CPU E5-2690 v3 @ 2.60GHz
 GLOBAL| CPUID                                                              1002

 MEMORY| system memory details [Kb]
 MEMORY|                        rank 0           min           max       average
 MEMORY| MemTotal             65740148      65740148      65740148      65740148
 MEMORY| MemFree              60877648      60865720      61160392      60960589
 MEMORY| Buffers                  7156          6612          8148          6989
 MEMORY| Cached                1840268       1651964       1860932       1792579
 MEMORY| Slab                   218012        211620        218676        215112
 MEMORY| SReclaimable            48504         47368         48504         47874
 MEMORY| MemLikelyFree        62773576      62773576      62866664      62808031


 *******************************************************************************
 *******************************************************************************
 **                                                                           **
 **     #####                         ##              ##                      **
 **    ##   ##            ##          ##              ##                      **
 **   ##     ##                       ##            ######                    **
 **   ##     ##  ##   ##  ##   #####  ##  ##   ####   ##    #####    #####    **
 **   ##     ##  ##   ##  ##  ##      ## ##   ##      ##   ##   ##  ##   ##   **
 **   ##  ## ##  ##   ##  ##  ##      ####     ###    ##   ######   ######    **
 **    ##  ###   ##   ##  ##  ##      ## ##      ##   ##   ##       ##        **
 **     #######   #####   ##   #####  ##  ##  ####    ##    #####   ##        **
 **           ##                                                    ##        **
 **                                                                           **
 **                                                ... make the atoms dance   **
 **                                                                           **
 **            Copyright (C) by CP2K developers group (2000-2024)             **
 **                      J. Chem. Phys. 152, 194103 (2020)                    **
 **                                                                           **
 *******************************************************************************


 TOTAL NUMBERS AND MAXIMUM NUMBERS

  Total number of            - Atomic kinds:                                   6
                             - Atoms:                                        409
                             - Shell sets:                                   409
                             - Shells:                                      3617
                             - Primitive Cartesian functions:               2053
                             - Cartesian basis functions:                  13634
                             - Spherical basis functions:                  11621

  Maximum angular momentum of- Orbital basis functions:                        3
                             - Local part of the GTH pseudopotential:          2
                             - Non-local part of the GTH pseudopotential:      4

  AUX_FIT ADMM-Basis: 
  Total number of            - Shell sets:                                  2799
                             - Shells:                                      2799
                             - Primitive Cartesian functions:               3609
                             - Cartesian basis functions:                   7546
                             - Spherical basis functions:                   6985
                               Maximum angular momentum                        3


 SCF PARAMETERS         Density guess:                                   RESTART
                        --------------------------------------------------------
                        max_scf:                                              10
                        max_scf_history:                                       0
                        max_diis:                                              4
                        --------------------------------------------------------
                        eps_scf:                                        1.00E-06
                        eps_scf_history:                                0.00E+00
                        eps_diis:                                       1.00E-01
                        eps_eigval:                                     1.00E-05
                        --------------------------------------------------------
                        level_shift [a.u.]:                             0.000000
                        --------------------------------------------------------
                        Outer loop SCF in use 
                        No variables optimised in outer loop
                        eps_scf                                         1.00E-06
                        max_scf                                               10
                        No outer loop optimization
                        step_size                                       5.00E-01

 Number of electrons:                                                       2056
 Number of occupied orbitals:                                               1028
 Number of molecular orbitals:                                              1028

 Number of orbital functions:                                              11621
 Number of independent orbital functions:                                  11621

 Extrapolation method: initial_guess

 *** WARNING in qs_initial_guess.F:306 :: User requested to restart the   ***
 *** wavefunction from the file named: Replica_24-RESTART.wfn. This file  ***
 *** does not exist. Please check the existence of the file or change     ***
 *** properly the value of the keyword WFN_RESTART_FILE_NAME. Calculation ***
 *** continues using ATOMIC GUESS.                                        ***



 SCF WAVEFUNCTION OPTIMIZATION

  ----------------------------------- OT ---------------------------------------
  Minimizer      : DIIS                : direct inversion
                                         in the iterative subspace
                                         using   7 DIIS vectors
                                         safer DIIS on
  Preconditioner : FULL_SINGLE_INVERSE : inversion of 
                                         H + eS - 2*(Sc)(c^T*H*c+const)(Sc)^T
  Precond_solver : DEFAULT
  stepsize       :    0.08000000                  energy_gap     :    0.08000000
  eps_taylor     :   0.10000E-15                  max_taylor     :             4
  ----------------------------------- OT ---------------------------------------

  Step     Update method      Time    Convergence         Total energy    Change
  ------------------------------------------------------------------------------
     1 OT DIIS     0.80E-01    6.5     0.01138233     -5012.0213762014 -5.01E+03
     2 OT DIIS     0.80E-01    5.3     0.00709103     -5086.5770305153 -7.46E+01
     3 OT DIIS     0.80E-01    5.3     0.00708687     -5121.3119199978 -3.47E+01
     4 OT DIIS     0.80E-01    5.3     0.00606581     -5138.4272959644 -1.71E+01
     5 OT DIIS     0.80E-01    5.3     0.00342037     -5177.2311990724 -3.88E+01
     6 OT DIIS     0.80E-01    5.3     0.00256494     -5189.7096847445 -1.25E+01
     7 OT DIIS     0.80E-01    5.3     0.00193695     -5197.4915392917 -7.78E+00
     8 OT DIIS     0.80E-01    5.3     0.00131450     -5204.1011350223 -6.61E+00
     9 OT DIIS     0.80E-01    5.3     0.00103414     -5206.9841172709 -2.88E+00
    10 OT DIIS     0.80E-01    5.3     0.00074442     -5209.5652058707 -2.58E+00

  Leaving inner SCF loop after reaching    10 steps.


  Electronic density on regular grids:      -2055.9999999675        0.0000000325
  Core density on regular grids:             2055.9999998531       -0.0000001469
  Total charge density on r-space grids:       -0.0000001144
  Total charge density g-space grids:          -0.0000001144

  Overlap energy of the core charge distribution:               0.00004695995903
  Self energy of the core charge distribution:              -9860.83173999830615
  Core Hamiltonian energy:                                   2923.71273497310813
  Hartree energy:                                            2791.23796361749010
  Exchange-correlation energy:                              -1063.68421142293846

  Total energy:                                             -5209.56520587068826

  outer SCF iter =    1 RMS gradient =   0.74E-03 energy =      -5209.5652058707

  ----------------------------------- OT ---------------------------------------
  Minimizer      : DIIS                : direct inversion
                                         in the iterative subspace
                                         using   7 DIIS vectors
                                         safer DIIS on
  Preconditioner : FULL_SINGLE_INVERSE : inversion of 
                                         H + eS - 2*(Sc)(c^T*H*c+const)(Sc)^T
  Precond_solver : DEFAULT
  stepsize       :    0.08000000                  energy_gap     :    0.08000000
  eps_taylor     :   0.10000E-15                  max_taylor     :             4
  ----------------------------------- OT ---------------------------------------

  Step     Update method      Time    Convergence         Total energy    Change
  ------------------------------------------------------------------------------
     1 OT DIIS     0.80E-01   13.6     0.00114807     -5210.8419217466 -1.28E+00
     2 OT DIIS     0.80E-01    5.3     0.00097547     -5211.9987576744 -1.16E+00
     3 OT DIIS     0.80E-01    5.3     0.00059009     -5213.7102903443 -1.71E+00
     4 OT DIIS     0.80E-01    5.3     0.00051939     -5214.0939751784 -3.84E-01
     5 OT DIIS     0.80E-01    5.3     0.00043751     -5214.2824838506 -1.89E-01
     6 OT DIIS     0.80E-01    5.3     0.00033413     -5214.4627803149 -1.80E-01
     7 OT DIIS     0.80E-01    5.3     0.00027003     -5214.5857534195 -1.23E-01
     8 OT DIIS     0.80E-01    5.3     0.00025466     -5214.6301762913 -4.44E-02
     9 OT DIIS     0.80E-01    5.3     0.00016791     -5214.7028548289 -7.27E-02
    10 OT DIIS     0.80E-01    5.3     0.00011210     -5214.7379609246 -3.51E-02

  Leaving inner SCF loop after reaching    10 steps.


  Electronic density on regular grids:      -2055.9999999675        0.0000000325
  Core density on regular grids:             2055.9999998531       -0.0000001469
  Total charge density on r-space grids:       -0.0000001144
  Total charge density g-space grids:          -0.0000001144

  Overlap energy of the core charge distribution:               0.00004695995903
  Self energy of the core charge distribution:              -9860.83173999830615
  Core Hamiltonian energy:                                   2918.70180193379292
  Hartree energy:                                            2791.78879820511656
  Exchange-correlation energy:                              -1064.39686802516485

  Total energy:                                             -5214.73796092460270

  outer SCF iter =    2 RMS gradient =   0.11E-03 energy =      -5214.7379609246

  ----------------------------------- OT ---------------------------------------
  Minimizer      : DIIS                : direct inversion
                                         in the iterative subspace
                                         using   7 DIIS vectors
                                         safer DIIS on
  Preconditioner : FULL_SINGLE_INVERSE : inversion of 
                                         H + eS - 2*(Sc)(c^T*H*c+const)(Sc)^T
  Precond_solver : DEFAULT
  stepsize       :    0.08000000                  energy_gap     :    0.08000000
  eps_taylor     :   0.10000E-15                  max_taylor     :             4
  ----------------------------------- OT ---------------------------------------

  Step     Update method      Time    Convergence         Total energy    Change
  ------------------------------------------------------------------------------
     1 OT DIIS     0.80E-01   13.3     0.00015745     -5214.7355091797  2.45E-03
     2 OT DIIS     0.80E-01    5.2     0.00012119     -5214.7543512695 -1.88E-02
     3 OT DIIS     0.80E-01    5.3     0.00010488     -5214.7639708145 -9.62E-03
     4 OT DIIS     0.80E-01    5.3     0.00005278     -5214.7750131949 -1.10E-02
     5 OT DIIS     0.80E-01    5.3     0.00001952     -5214.7758559749 -8.43E-04
     6 OT DIIS     0.80E-01    5.3     0.00001006     -5214.7759683994 -1.12E-04
     7 OT DIIS     0.80E-01    5.3     0.00000618     -5214.7760264824 -5.81E-05
     8 OT DIIS     0.80E-01    5.3     0.00000339     -5214.7760484403 -2.20E-05
     9 OT DIIS     0.80E-01    5.3     0.00000178     -5214.7760554561 -7.02E-06
    10 OT DIIS     0.80E-01    5.3     0.00000096     -5214.7760570038 -1.55E-06

  *** SCF run converged in    10 steps ***


  Electronic density on regular grids:      -2055.9999999675        0.0000000325
  Core density on regular grids:             2055.9999998531       -0.0000001469
  Total charge density on r-space grids:       -0.0000001144
  Total charge density g-space grids:          -0.0000001144

  Overlap energy of the core charge distribution:               0.00004695995903
  Self energy of the core charge distribution:              -9860.83173999830615
  Core Hamiltonian energy:                                   2918.59497118929994
  Hartree energy:                                            2791.84951820278820
  Exchange-correlation energy:                              -1064.38885335753230

  Total energy:                                             -5214.77605700379172

  outer SCF iter =    3 RMS gradient =   0.96E-06 energy =      -5214.7760570038
  outer SCF loop converged in   3 iterations or   30 steps


 ENERGY| Total FORCE_EVAL ( QS ) energy [a.u.]:            -5214.776057003791720

 -------------------------------------------------------------------------------
 -                                                                             -
 -                                DBCSR STATISTICS                             -
 -                                                                             -
 -------------------------------------------------------------------------------
 COUNTER                                    TOTAL       BLAS       SMM       ACC
 flops    14 x     4 x     4               129024       0.0%    100.0%      0.0%     
 flops     4 x     4 x   976               187392       0.0%    100.0%      0.0%     
 flops    41 x     4 x     4               314880       0.0%    100.0%      0.0%     
 flops     4 x     4 x   974               374016       0.0%    100.0%      0.0%     
 flops     4 x     4 x   962               461760       0.0%    100.0%      0.0%     
 flops    29 x     4 x     4              1787328       0.0%    100.0%      0.0%     
 flops    14 x    32 x     4             16515072       0.0%    100.0%      0.0%     
 flops    14 x     4 x    32             16515072       0.0%    100.0%      0.0%     
 flops    32 x     4 x   976             23986176       0.0%    100.0%      0.0%     
 flops     4 x    32 x   976             23986176       0.0%    100.0%      0.0%     
 flops    41 x    32 x     4             40304640       0.0%    100.0%      0.0%     
 flops    41 x     4 x    32             40304640       0.0%    100.0%      0.0%     
 flops    32 x     4 x   974             47874048       0.0%    100.0%      0.0%     
 flops     4 x    32 x   974             47874048       0.0%    100.0%      0.0%     
 flops    32 x     4 x   962             59105280       0.0%    100.0%      0.0%     
 flops     4 x    32 x   962             59105280       0.0%    100.0%      0.0%     
 flops    14 x     4 x    14            111390720       0.0%    100.0%      0.0%     
 flops    68 x    68 x    68            157844864       0.0%    100.0%      0.0%     
 flops    29 x    32 x     4            228777984       0.0%    100.0%      0.0%     
 flops    29 x     4 x    32            228777984       0.0%    100.0%      0.0%     
 flops    41 x    14 x    68            393442560       0.0%    100.0%      0.0%     
 flops    64 x    68 x    68            445679616       0.0%    100.0%      0.0%     
 flops    68 x    64 x    68            445679616       0.0%    100.0%      0.0%     
 flops    68 x    68 x    64            445679616       0.0%    100.0%      0.0%     
 flops    14 x    14 x    68            510515712       0.0%    100.0%      0.0%     
 flops    41 x     4 x    14            521945088       0.0%    100.0%      0.0%     
 flops    14 x     4 x    41            521945088       0.0%    100.0%      0.0%     
 flops    41 x    14 x    64           1110896640       0.0%    100.0%      0.0%     
 flops    64 x    64 x    68           1258389504       0.0%    100.0%      0.0%     
 flops    64 x    68 x    64           1258389504       0.0%    100.0%      0.0%     
 flops    68 x    64 x    64           1258389504       0.0%    100.0%      0.0%     
 flops   963 x    68 x    68           1282438656       0.0%    100.0%      0.0%     
 flops    14 x    14 x    64           1441456128       0.0%    100.0%      0.0%     
 flops    41 x     4 x    41           1584281984       0.0%    100.0%      0.0%     
 flops    14 x     4 x    29           1732937920       0.0%    100.0%      0.0%     
 flops    29 x     4 x    14           1732937920       0.0%    100.0%      0.0%     
 flops    68 x    68 x    96           1782718464       0.0%    100.0%      0.0%     
 flops    68 x    96 x    68           1782718464       0.0%    100.0%      0.0%     
 flops    96 x    68 x    68           1782718464       0.0%    100.0%      0.0%     
 flops    68 x    68 x   976           2112095232       0.0%    100.0%      0.0%     
 flops   976 x    68 x    68           2599501824       0.0%    100.0%      0.0%     
 flops    64 x    64 x    64           3553099776       0.0%    100.0%      0.0%     
 flops   963 x    64 x    68           3621003264       0.0%    100.0%      0.0%     
 flops   963 x    68 x    64           3621003264       0.0%    100.0%      0.0%     
 flops    14 x    41 x    68           3773301504       0.0%    100.0%      0.0%     
 flops    68 x    68 x   974           4215534336       0.0%    100.0%      0.0%     
 flops    14 x    32 x    32           4359979008       0.0%    100.0%      0.0%     
 flops    41 x    14 x    96           4443586560       0.0%    100.0%      0.0%     
 flops    64 x    68 x    96           5033558016       0.0%    100.0%      0.0%     
 flops    64 x    96 x    68           5033558016       0.0%    100.0%      0.0%     
 flops    68 x    64 x    96           5033558016       0.0%    100.0%      0.0%     
 flops    68 x    96 x    64           5033558016       0.0%    100.0%      0.0%     
 flops    96 x    64 x    68           5033558016       0.0%    100.0%      0.0%     
 flops    96 x    68 x    64           5033558016       0.0%    100.0%      0.0%     
 flops   974 x    68 x    68           5188349952       0.0%    100.0%      0.0%     
 flops    68 x    68 x   962           5204496960       0.0%    100.0%      0.0%     
 flops    14 x    14 x    96           5765824512       0.0%    100.0%      0.0%     
 flops    64 x    68 x   976           5963563008       0.0%    100.0%      0.0%     
 flops    68 x    64 x   976           5963563008       0.0%    100.0%      0.0%     
 flops    32 x    32 x   976           6332350464       0.0%    100.0%      0.0%     
 flops    41 x    41 x    68           6345465696       0.0%    100.0%      0.0%     
 flops    14 x    29 x    68           6366183936       0.0%    100.0%      0.0%     
 flops   962 x    68 x    68           6405534720       0.0%    100.0%      0.0%     
 flops   976 x    64 x    68           7339769856       0.0%    100.0%      0.0%     
 flops   976 x    68 x    64           7339769856       0.0%    100.0%      0.0%     
 flops    41 x     4 x    29           8423427696       0.0%    100.0%      0.0%     
 flops    29 x     4 x    41           8423427696       0.0%    100.0%      0.0%     
 flops   963 x    68 x   976           8436434688       0.0%    100.0%      0.0%     
 flops    29 x    14 x    68           8527448608       0.0%    100.0%      0.0%     
 flops   963 x    64 x    64          10224009216       0.0%    100.0%      0.0%     
 flops    41 x    32 x    32          10640424960       0.0%    100.0%      0.0%     
 flops    14 x    41 x    64          10654027776       0.0%    100.0%      0.0%     
 flops    64 x    68 x   974          11902685184       0.0%    100.0%      0.0%     
 flops    68 x    64 x   974          11902685184       0.0%    100.0%      0.0%     
 flops    32 x    32 x   974          12638748672       0.0%    100.0%      0.0%     
 flops    64 x    64 x    96          14212399104       0.0%    100.0%      0.0%     
 flops    64 x    96 x    64          14212399104       0.0%    100.0%      0.0%     
 flops    96 x    64 x    64          14212399104       0.0%    100.0%      0.0%     
 flops   963 x    68 x    96          14484013056       0.0%    100.0%      0.0%     
 flops   963 x    96 x    68          14484013056       0.0%    100.0%      0.0%     
 flops   974 x    64 x    68          14649458688       0.0%    100.0%      0.0%     
 flops   974 x    68 x    64          14649458688       0.0%    100.0%      0.0%     
 flops    64 x    68 x   962          14695050240       0.0%    100.0%      0.0%     
 flops    68 x    64 x   962          14695050240       0.0%    100.0%      0.0%     
 flops    32 x    32 x   962          15603793920       0.0%    100.0%      0.0%     
 flops   963 x    68 x   974          16838293824       0.0%    100.0%      0.0%     
 flops    64 x    64 x   976          16838295552       0.0%    100.0%      0.0%     
 flops   976 x    68 x   976          17100644352       0.0%    100.0%      0.0%     
 flops    41 x    41 x    64          17916609024       0.0%    100.0%      0.0%     
 flops    14 x    29 x    64          17975107584       0.0%    100.0%      0.0%     
 flops   962 x    64 x    68          18086215680       0.0%    100.0%      0.0%     
 flops   962 x    68 x    64          18086215680       0.0%    100.0%      0.0%     
 flops    96 x    96 x    68          20134232064       0.0%    100.0%      0.0%     
 flops    68 x    96 x    96          20134232064       0.0%    100.0%      0.0%     
 flops    96 x    68 x    96          20134232064       0.0%    100.0%      0.0%     
 flops   976 x    64 x    64          20724056064       0.0%    100.0%      0.0%     
 flops   963 x    68 x   962          20788550640       0.0%    100.0%      0.0%     
 flops   963 x    64 x   976          23820521472       0.0%    100.0%      0.0%     
 flops    68 x    96 x   976          23854252032       0.0%    100.0%      0.0%     
 flops    96 x    68 x   976          23854252032       0.0%    100.0%      0.0%     
 flops    29 x    14 x    64          24077501952       0.0%    100.0%      0.0%     
 flops    29 x    41 x    68          28161883528       0.0%    100.0%      0.0%     
 flops    14 x    32 x    14          28516024320       0.0%    100.0%      0.0%     
 flops   976 x    68 x    96          29359079424       0.0%    100.0%      0.0%     
 flops   976 x    96 x    68          29359079424       0.0%    100.0%      0.0%     
 flops    29 x     4 x    29          30135694288       0.0%    100.0%      0.0%     
 flops    64 x    64 x   974          33607581696       0.0%    100.0%      0.0%     
 flops   976 x    68 x   974          34131204096       0.0%    100.0%      0.0%     
 flops   974 x    68 x   976          34131204096       0.0%    100.0%      0.0%     
 flops    41 x    29 x    68          38055419360       0.0%    100.0%      0.0%     
 flops   963 x    64 x    96          40896036864       0.0%    100.0%      0.0%     
 flops   963 x    96 x    64          40896036864       0.0%    100.0%      0.0%     
 flops   974 x    64 x    64          41363177472       0.0%    100.0%      0.0%     
 flops    64 x    64 x   962          41491906560       0.0%    100.0%      0.0%     
 flops   976 x    68 x   962          42138370560       0.0%    100.0%      0.0%     
 flops   962 x    68 x   976          42138370560       0.0%    100.0%      0.0%     
 flops    14 x    41 x    96          42616111104       0.0%    100.0%      0.0%     
 flops   963 x    64 x   974          47543417856       0.0%    100.0%      0.0%     
 flops    68 x    96 x   974          47610740736       0.0%    100.0%      0.0%     
 flops    96 x    68 x   974          47610740736       0.0%    100.0%      0.0%     
 flops   976 x    64 x   976          48284172288       0.0%    100.0%      0.0%     
 flops   962 x    64 x    64          51066961920       0.0%    100.0%      0.0%     
 flops    96 x    96 x    64          56849596416       0.0%    100.0%      0.0%     
 flops    64 x    96 x    96          56849596416       0.0%    100.0%      0.0%     
 flops    96 x    64 x    96          56849596416       0.0%    100.0%      0.0%     
 flops   974 x    96 x    68          58597834752       0.0%    100.0%      0.0%     
 flops   974 x    68 x    96          58597834752       0.0%    100.0%      0.0%     
 flops   963 x    64 x   962          58697084160       0.0%    100.0%      0.0%     
 flops    68 x    96 x   962          58780200960       0.0%    100.0%      0.0%     
 flops    96 x    68 x   962          58780200960       0.0%    100.0%      0.0%     
 flops    29 x    32 x    32          60397387776       0.0%    100.0%      0.0%     
 flops    64 x    96 x   976          67353182208       0.0%    100.0%      0.0%     
 flops    96 x    64 x   976          67353182208       0.0%    100.0%      0.0%     
 flops   974 x    68 x   974          68122526208       0.0%    100.0%      0.0%     
 flops    41 x    41 x    96          71666436096       0.0%    100.0%      0.0%     
 flops    14 x    29 x    96          71900430336       0.0%    100.0%      0.0%     
 flops   962 x    68 x    96          72344862720       0.0%    100.0%      0.0%     
 flops   962 x    96 x    68          72344862720       0.0%    100.0%      0.0%     
 flops    29 x    41 x    64          79515906432       0.0%    100.0%      0.0%     
 flops   976 x    64 x    96          82896224256       0.0%    100.0%      0.0%     
 flops   976 x    96 x    64          82896224256       0.0%    100.0%      0.0%     
 flops   962 x    68 x   974          84104042880       0.0%    100.0%      0.0%     
 flops   974 x    68 x   962          84104042880       0.0%    100.0%      0.0%     
 flops   963 x    96 x   976          95282085888       0.0%    100.0%      0.0%     
 flops    29 x    14 x    96          96310007808       0.0%    100.0%      0.0%     
 flops   976 x    64 x   974          96370458624       0.0%    100.0%      0.0%     
 flops   974 x    64 x   976          96370458624       0.0%    100.0%      0.0%     
 flops   962 x    68 x   962         103834816800       0.0%    100.0%      0.0%     
 flops    41 x    29 x    64         107450595840       0.0%    100.0%      0.0%     
 flops   976 x    64 x   962         118978928640       0.0%    100.0%      0.0%     
 flops   962 x    64 x   976         118978928640       0.0%    100.0%      0.0%     
 flops    29 x    29 x    68         125609781968       0.0%    100.0%      0.0%     
 flops    41 x    32 x    14         133617942528       0.0%    100.0%      0.0%     
 flops    14 x    32 x    41         133617942528       0.0%    100.0%      0.0%     
 flops    64 x    96 x   974         134430326784       0.0%    100.0%      0.0%     
 flops    96 x    64 x   974         134430326784       0.0%    100.0%      0.0%     
 flops   963 x    96 x    96         163584147456       0.0%    100.0%      0.0%     
 flops   974 x    96 x    64         165452709888       0.0%    100.0%      0.0%     
 flops   974 x    64 x    96         165452709888       0.0%    100.0%      0.0%     
 flops    64 x    96 x   962         165967626240       0.0%    100.0%      0.0%     
 flops    96 x    64 x   962         165967626240       0.0%    100.0%      0.0%     
 flops   963 x    96 x   974         190173671424       0.0%    100.0%      0.0%     
 flops   974 x    64 x   974         192345956352       0.0%    100.0%      0.0%     
 flops   976 x    96 x   976         193136689152       0.0%    100.0%      0.0%     
 flops   962 x    64 x    96         204267847680       0.0%    100.0%      0.0%     
 flops   962 x    96 x    64         204267847680       0.0%    100.0%      0.0%     
 flops    96 x    96 x    96         227398385664       0.0%    100.0%      0.0%     
 flops   963 x    96 x   962         234788336640       0.0%    100.0%      0.0%     
 flops   962 x    64 x   974         237470238720       0.0%    100.0%      0.0%     
 flops   974 x    64 x   962         237470238720       0.0%    100.0%      0.0%     
 flops    96 x    96 x   976         269412728832       0.0%    100.0%      0.0%     
 flops   962 x    64 x   962         293180659200       0.0%    100.0%      0.0%     
 flops    29 x    41 x    96         318063625728       0.0%    100.0%      0.0%     
 flops   976 x    96 x    96         331584897024       0.0%    100.0%      0.0%     
 flops    29 x    29 x    64         354662913792       0.0%    100.0%      0.0%     
 flops   974 x    96 x   976         385481834496       0.0%    100.0%      0.0%     
 flops   976 x    96 x   974         385481834496       0.0%    100.0%      0.0%     
 flops    41 x    32 x    41         405576187904       0.0%    100.0%      0.0%     
 flops    41 x    29 x    96         429802383360       0.0%    100.0%      0.0%     
 flops    14 x    32 x    29         443632107520       0.0%    100.0%      0.0%     
 flops    29 x    32 x    14         443632107520       0.0%    100.0%      0.0%     
 flops   976 x    96 x   962         475915714560       0.0%    100.0%      0.0%     
 flops   962 x    96 x   976         475915714560       0.0%    100.0%      0.0%     
 flops    96 x    96 x   974         537721307136       0.0%    100.0%      0.0%     
 flops   974 x    96 x    96         661810839552       0.0%    100.0%      0.0%     
 flops    96 x    96 x   962         663870504960       0.0%    100.0%      0.0%     
 flops   974 x    96 x   974         769383825408       0.0%    100.0%      0.0%     
 flops   962 x    96 x    96         817071390720       0.0%    100.0%      0.0%     
 flops   974 x    96 x   962         949880954880       0.0%    100.0%      0.0%     
 flops   962 x    96 x   974         949880954880       0.0%    100.0%      0.0%     
 flops   962 x    96 x   962        1172722636800       0.0%    100.0%      0.0%     
 flops    29 x    29 x    96        1418651655168       0.0%    100.0%      0.0%     
 flops    41 x    32 x    29        2156397490176       0.0%    100.0%      0.0%     
 flops    29 x    32 x    41        2156397490176       0.0%    100.0%      0.0%     
 flops    29 x    32 x    29        7714737737728       0.0%    100.0%      0.0%     
 flops inhomo. stacks               1014255147648     100.0%      0.0%      0.0%
 flops total                        33.207414E+12       3.1%     96.9%      0.0%
 flops max/rank                    265.464509E+09       3.1%     96.9%      0.0%
 matmuls inhomo. stacks                     23283     100.0%      0.0%      0.0%
 matmuls total                          280077540       0.0%    100.0%      0.0%
 number of processed stacks               2785653       0.8%     99.2%      0.0%
 average stack size                                     1.1     101.3       0.0
 marketing flops                    46.400457E+12
 -------------------------------------------------------------------------------
 # multiplications                            665
 max memory usage/rank             600.858624E+06
 # max total images/rank                        1
 # max 3D layers                                1
 # MPI messages exchanged                 2106720
 MPI messages size (bytes):
  total size                         1.631579E+12
  min size                           0.000000E+00
  max size                           7.620608E+06
  average size                     774.464000E+03
 MPI breakdown and total messages size (bytes):
             size <=      128               13860                        0
       128 < size <=     8192                   0                        0
      8192 < size <=    32768               64647               2114031744
     32768 < size <=   131072              963765              58249671040
    131072 < size <=  4194304              894960             593974411360
   4194304 < size <= 16777216              169488             977246221864
  16777216 < size                               0                        0
 -------------------------------------------------------------------------------
 -                                                                             -
 -                      DBCSR MESSAGE PASSING PERFORMANCE                      -
 -                                                                             -
 -------------------------------------------------------------------------------
 ROUTINE             CALLS      AVE VOLUME [Bytes]
 MP_Bcast              196                     12.
 MP_Allreduce         3915                     31.
 MP_Alltoall          2466                 148491.
 MP_ISend            31908                 366386.
 MP_IRecv            31908                 364033.
 -------------------------------------------------------------------------------

 -------------------------------------------------------------------------------
 -                                                                             -
 -                                DBM STATISTICS                               -
 -                                                                             -
 -------------------------------------------------------------------------------
    M  x    N  x    K                                          COUNT     PERCENT
 -------------------------------------------------------------------------------

 -------------------------------------------------------------------------------
 -                                                                             -
 -                                GRID STATISTICS                              -
 -                                                                             -
 -------------------------------------------------------------------------------
 LP    KERNEL             BACKEND                              COUNT     PERCENT
 6     collocate ortho    CPU                                8270676      21.55%
 8     collocate ortho    CPU                                8175444      21.30%
 6     integrate ortho    CPU                                8003880      20.85%
 8     integrate ortho    CPU                                7911720      20.61%
 5     collocate ortho    CPU                                1466920       3.82%
 7     collocate ortho    CPU                                1466920       3.82%
 5     integrate ortho    CPU                                1419600       3.70%
 7     integrate ortho    CPU                                1419600       3.70%
 4     collocate ortho    CPU                                  95232       0.25%
 4     integrate ortho    CPU                                  92160       0.24%
 0     collocate general  CPU                                  58896       0.15%
 -------------------------------------------------------------------------------

 MEMORY| Estimated peak process memory [MiB]                                 573

 -------------------------------------------------------------------------------
 -                                                                             -
 -                         MESSAGE PASSING PERFORMANCE                         -
 -                                                                             -
 -------------------------------------------------------------------------------

 ROUTINE             CALLS      AVE VOLUME [Bytes]
 MP_Group                4
 MP_Bcast             3786                3954777.
 MP_Allreduce         8519                   2687.
 MP_Sync                32
 MP_Alltoall          1050               17396932.
 MP_SendRecv         17732                  98624.
 MP_ISendRecv        17160                  98624.
 MP_Wait             28430
 MP_comm_split          28
 MP_ISend            10290                 576255.
 MP_IRecv            10290                 576285.
 -------------------------------------------------------------------------------


 -------------------------------------------------------------------------------
 -                                                                             -
 -                           R E F E R E N C E S                               -
 -                                                                             -
 -------------------------------------------------------------------------------
 
 CP2K version 2024.2 (Development Version), the CP2K developers group (2024).
 CP2K is freely available from https://www.cp2k.org/ .
 
 T. D. Kuehne, M. Iannuzzi, M. Del Ben, V. V. Rybkin, P. Seewald, F. Stein, T. 
 Laino, R. Z. Khaliullin, O. Schuett, F. Schiffmann, D. Golze, J. Wilhelm, S. 
 Chulkov, M. H. Bani-Hashemian, V. Weber, U. Borstnik, M. Taillefumier, A. S. 
 Jakobovits, A. Lazzaro, H. Pabst, T. Mueller, R. Schade, M. Guidon, S. 
 Andermatt, N. Holmberg, G. K. Schenter, A. Hehn, A. Bussy, F. Belleflamme, G. 
 Tabacchi, A. Gloess, M. Lass, I. Bethune, C. J. Mundy, C. Plessl, M. Watkins, 
 J. VandeVondele, M. Krack, J. Hutter.
 J. Chem. Phys. 152, 194103 (2020).
 CP2K: An electronic structure and molecular dynamics software package - 
 Quickstep: Efficient and accurate electronic structure calculations.
 https://doi.org/10.1063/5.0007045

 S. Lehtola, C. Steigemann, M. J. T. Oliveira, M. A. L. Marques.
 SoftwareX 7, 1-5 (2018).
 Recent developments in libxc - A comprehensive library of functionals for 
 density functional theory.
 https://doi.org/10.1016/j.softx.2017.11.002

 O. Schuett, P. Messmer, J. Hutter, J. VandeVondele.
 Electronic Structure Calculations on Graphics Processing Units, 173-190 (2016).
 GPU-Accelerated Sparse Matrix-Matrix Multiplication for Linear Scaling Density 
 Functional Theory.
 https://doi.org/10.1002/9781118670712.ch8

 A. Heinecke, G. Henry, M. Hutchinson, H. Pabst.
 Proceedings of Intl. Supercomputing Conference, 981-991 (2016).
 LIBXSMM: Accelerating Small Matrix Multiplications by Runtime Code Generation.
 https://doi.org/10.1109/SC.2016.83

 J. Hutter, M. Iannuzzi, F. Schiffmann, J. VandeVondele.
 WIREs Comput Mol Sci. 4, 15-25 (2014).
 CP2K: atomistic simulations of condensed matter systems.
 https://doi.org/10.1002/wcms.1159

 U. Borstnik, J. VandeVondele, V. Weber, J. Hutter.
 Parallel Comput. 40, 47-58 (2014).
 Sparse matrix multiplication: The distributed block-compressed sparse row 
 library.
 https://doi.org/10.1016/j.parco.2014.03.012

 M. A. L. Marques, M. J. T. Oliveira, T. Burnus.
 Comput. Phys. Commun. 183, 2272-2281 (2012).
 LIBXC: A library of exchange and correlation functionals for density functional 
 theory.
 https://doi.org/10.1016/j.cpc.2012.05.007

 J. VandeVondele, J. Hutter.
 J. Chem. Phys. 127, 114105 (2007).
 Gaussian basis sets for accurate calculations on molecular systems in gas and 
 condensed phases.
 https://doi.org/10.1063/1.2770708

 J. VandeVondele, M. Krack, F. Mohamed, M. Parrinello, T. Chassaing, J. Hutter.
 Comput. Phys. Commun. 167, 103-128 (2005).
 QUICKSTEP: Fast and accurate density functional calculations using a mixed 
 Gaussian and plane waves approach.
 https://doi.org/10.1016/j.cpc.2004.12.014

 M. Krack.
 Theor. Chem. Acc. 114, 145-152 (2005).
 Pseudopotentials for H to Kr optimized for gradient-corrected 
 exchange-correlation functionals.
 https://doi.org/10.1007/s00214-005-0655-y

 M. Frigo, S. G. Johnson.
 Proc. IEEE 93, 216-231 (2005).
 The design and implementation of FFTW3.
 https://doi.org/10.1109/JPROC.2004.840301

 J. VandeVondele, J. Hutter.
 J. Chem. Phys. 118, 4365-4369 (2003).
 An efficient orbital transformation method for electronic structure 
 calculations.
 https://doi.org/10.1063/1.1543154

 C. Hartwigsen, S. Goedecker, J. Hutter.
 Phys. Rev. B 58, 3641-3662 (1998).
 Relativistic separable dual-space Gaussian pseudopotentials from H to Rn.
 https://doi.org/10.1103/PhysRevB.58.3641

 G. Lippert, J. Hutter, M. Parrinello.
 Mol. Phys. 92, 477-487 (1997).
 A hybrid Gaussian and plane wave density functional scheme.
 https://doi.org/10.1080/002689797170220

 S. Goedecker, M. Teter, J. Hutter.
 Phys. Rev. B 54, 1703-1710 (1996).
 Separable dual-space Gaussian pseudopotentials.
 https://doi.org/10.1103/PhysRevB.54.1703


 -------------------------------------------------------------------------------
 -                                                                             -
 -                                T I M I N G                                  -
 -                                                                             -
 -------------------------------------------------------------------------------
 SUBROUTINE                       CALLS  ASD         SELF TIME        TOTAL TIME
                                MAXIMUM       AVERAGE  MAXIMUM  AVERAGE  MAXIMUM
 CP2K                                 1  1.0    0.016    0.037  172.106  172.107
 qs_energies                          1  2.0    0.005    0.008  170.419  170.422
 scf_env_do_scf                       1  3.0    0.000    0.000  167.676  167.677
 scf_env_do_scf_inner_loop           30  4.0    0.001    0.006  149.994  150.258
 qs_ks_update_qs_env                 33  5.0    0.000    0.000   93.955   94.106
 rebuild_ks_matrix                   30  6.0    0.000    0.000   93.886   94.039
 qs_ks_build_kohn_sham_matrix        30  7.0    0.004    0.006   93.886   94.038
 qs_rho_update_rho_low               31  5.0    0.000    0.000   47.788   47.831
 calculate_rho_elec                  62  6.0    0.140    0.144   47.787   47.831
 sum_up_and_integrate                30  8.0    0.001    0.002   47.786   47.791
 integrate_v_rspace                  60  9.0    0.003    0.003   47.593   47.599
 fft_wrap_pw1pw2                    791  9.9    0.017    0.023   38.271   39.413
 qs_vxc_create                       30  8.0    0.001    0.001   38.018   38.040
 xc_vxc_pw_create                    30  9.0    0.280    0.334   38.017   38.039
 fft_wrap_pw1pw2_500                425 11.3    1.623    1.654   36.227   37.410
 fft3d_ps                           791 11.9   13.955   14.342   29.455   30.719
 grid_integrate_task_list            60 10.0   28.725   30.161   28.725   30.161
 grid_collocate_task_list            62  7.0   25.253   27.023   25.253   27.023
 xc_rho_set_and_dset_create          30 10.0    0.284    0.335   25.187   25.584
 density_rs2pw                       62  7.0    0.005    0.005   21.859   23.422
 dbcsr_multiply_generic             665 10.0    0.036    0.040   19.602   19.969
 qs_scf_new_mos                      30  5.0    0.000    0.000   19.159   19.449
 qs_scf_loop_do_ot                   30  6.0    0.000    0.000   19.159   19.449
 xc_pw_derive                       180 11.0    0.004    0.004   17.922   19.073
 ot_scf_mini                         30  7.0    0.001    0.001   17.838   18.094
 init_scf_loop                        3  4.0    0.000    0.000   17.543   17.555
 potential_pw2rs                     60 10.0    0.012    0.013   16.819   16.839
 multiply_cannon                    665 11.0    0.052    0.061   15.569   16.534
 xc_functional_eval                  60 11.0    0.001    0.001   15.899   16.252
 libxc_lda_eval                      60 12.0   15.898   16.250   15.899   16.251
 multiply_cannon_loop               665 12.0    0.070    0.073   14.537   15.427
 xc_pw_divergence                    30 10.0    0.002    0.003   12.282   13.403
 mp_alltoall_z22v                   791 13.9   11.044   12.072   11.044   12.072
 transfer_rs2pw                     249  8.0    0.004    0.007    9.790   11.374
 multiply_cannon_multrec           7980 13.0    9.506   10.746    9.511   10.750
 transfer_pw2rs                     240 11.0    0.003    0.005   10.399   10.404
 mp_waitall_1                     92620 13.9    7.238    9.524    7.238    9.524
 ot_mini                             30  8.0    0.000    0.000    9.055    9.344
 yz_to_x                            337 12.6    2.101    2.417    7.879    8.942
 mp_waitany                       10290 11.5    7.033    8.738    7.033    8.738
 x_to_yz                            332 13.4    2.278    2.331    7.538    7.732
 transfer_rs2pw_500                  63  9.0    2.290    2.749    5.855    7.608
 prepare_preconditioner               3  5.0    0.000    0.000    7.330    7.368
 make_preconditioner                  3  6.0    0.000    0.000    7.330    7.368
 transfer_pw2rs_500                  60 12.0    2.492    2.881    6.109    6.614
 qs_ot_get_p                         33  7.8    0.000    0.000    5.030    5.395
 apply_preconditioner_dbcsr          33 10.0    0.000    0.000    4.619    4.798
 apply_single                        33 11.0    0.000    0.000    4.618    4.798
 qs_ot_get_derivative                30  9.0    0.000    0.000    4.494    4.756
 ot_diis_step                        30  9.0    0.002    0.002    4.535    4.535
 make_full_inverse_cholesky           3  7.0    0.000    0.000    4.430    4.478
 multiply_cannon_metrocomm3        7980 13.0    0.023    0.026    0.978    4.331
 mp_alltoall_d11v                   650 11.7    2.627    4.312    2.627    4.312
 multiply_cannon_metrocomm1        7980 13.0    0.030    0.032    3.173    4.269
 qs_ot_p2m_diag                      28  9.0    0.017    0.022    3.922    3.930
 rs_gather_matrices                  60 10.0    0.129    0.153    2.046    3.812
 cp_dbcsr_syevd                      28 10.0    0.001    0.002    3.756    3.756
 cp_fm_syevd                         28 11.0    0.000    0.000    3.680    3.681
 cp_fm_redistribute_end              28 12.0    1.837    3.661    1.838    3.662
 cp_fm_syevd_base                    28 12.0    1.822    3.648    1.822    3.648
 -------------------------------------------------------------------------------

 The number of warnings for this run is : 1
 
 -------------------------------------------------------------------------------
  **** **** ******  **  PROGRAM ENDED AT                 2024-09-13 03:20:36.146
 ***** ** ***  *** **   PROGRAM RAN ON                                  nid03597
 **    ****   ******    PROGRAM RAN BY                                  bsertcan
 ***** **    ** ** **   PROGRAM PROCESS ID                                 11393
  **** **  *******  **  PROGRAM STOPPED IN /scratch/snx3000/bsertcan/MFU_sp/rsca
                                           n/cl/xe/rep24
