     409
 i =     176, E =    -5136.6830582891
  N         2.9211763620        5.2020045848       15.9700978580
  C         1.6042968993        5.4781671086       16.2403442456
  N        13.7112932291        5.0507908564        5.0509736444
  C        12.3912304557        5.3213126222        5.3226009872
  N        19.6719589126       17.6037368421       16.0477962138
  C        20.9887348691       17.3160895127       16.3004403571
  N         8.7812707712       17.5491514791        5.1732879138
  C        10.1019954158       17.2697808552        5.4198792571
  N        19.5851255809        5.2000051112        6.7568186080
  C        20.9029470596        5.4723126434        6.4891409858
  N         8.7805150154        5.1728323832       17.5501747806
  C        10.1012840501        5.4187077726       17.2705590400
  N         2.9285522535       17.5247697501        6.7593515765
  C         1.6100128886       17.2577933082        6.4920086155
  N        13.7996089125       17.6678871433       17.6679373715
  C        12.4836533046       17.3883564526       17.3885912922
  N        15.9408934560        2.9941664480        5.1350294016
  C        16.2122970161        1.6827715794        5.4233308253
  N        15.9732123956       13.9166331423       16.0633743527
  C        16.2447189771       12.5953646290       16.3169267403
  N        15.9883682794       19.7795047389       17.6195208950
  C        16.2342173856       21.0946324962       17.3187649592
  N        15.8263546182        8.8407316141        6.7025102652
  C        16.1016081896       10.1655792257        6.4771469802
  N         6.6043828494       19.6815071523        5.1886150363
  C         6.3223128770       20.9967913322        5.4497585830
  N         6.6922390622        8.8933384475       15.9920933971
  C         6.4349473544       10.2145771893       16.2672941605
  N         6.6159885161        3.0428159977       17.5462265930
  C         6.3526750326        1.7241666335       17.2809514608
  N         6.6258376524       13.8117895041        6.7422010553
  C         6.3604076336       12.4942858802        6.4625473737
  N         5.0717580956       15.9795476059        3.0313547617
  C         5.3455816258       16.2568264532        1.7152788012
  N         5.0708562306        5.1853870991       13.8186179941
  C         5.3434168813        5.4478782425       12.4999338446
  N        17.5275035992       16.0466080026       19.7737091987
  C        17.2385039482       16.2918138218       21.0920624019
  N        17.3988202433        5.1729902249        8.8798649581
  C        17.1264041958        5.4772917354       10.1906268176
  N         5.0697144978        6.7641660064       19.6787920763
  C         5.3208796349        6.4795968437       20.9971317258
  N         5.1060187262       17.5179733837        8.9033648661
  C         5.3998145341       17.2631290797       10.2187940267
  N        17.4703712912        6.7166716549        3.0160828205
  C        17.2121301527        6.4537956819        1.6951242949
  N        17.5269404562       17.6201119143       13.8996061300
  C        17.2578984148       17.3341889334       12.5842909249
  N         5.0257234602        2.9972109587        6.7136680669
  C         5.2983704183        1.6776036440        6.4546997538
  N         5.1496015211       13.8553527174       17.5527718755
  C         5.4206636151       12.5393027205       17.2792248671
  N        17.4793077300       19.7019267840        6.7585975546
  C        17.2153143814       21.0167786900        6.4740778167
  N        17.4979112149        8.9408506303       17.5900559368
  C        17.2424931061       10.2608229983       17.3171993365
  N         5.1086664812       19.7129052146       16.0014370272
  C         5.3635260137       21.0337859395       16.2691887756
  N         5.0803115242        8.8631411364        5.1487465132
  C         5.3510595504       10.1781446923        5.4293642582
  N        17.4433784403        3.0920248986       15.9533297191
  C        17.1990427815        1.7729513412       16.2437956875
  N        17.4060180571       13.8325369568        5.3010831108
  C        17.1290129839       12.5114923279        5.5440836185
  N         2.9841438545       15.9908964235       17.5455902890
  C         1.6673561513       16.2725607837       17.2880593988
  N        13.7503609430       15.9834286859        6.6927517237
  C        12.4303563764       16.2344624228        6.4084572732
  N        19.6016261634       15.9649762669        5.2402395007
  C        20.9222812401       16.2377927437        5.4948070454
  N         8.8686474290       16.0586259173       16.0589286820
  C        10.1791943969       16.3472786817       16.3476866274
  N        19.6141657953        6.7763371739       17.5394602116
  C        20.9290605958        6.5005196050       17.2632313604
  N         8.7701485327        6.6422930704        6.6443563014
  C        10.0795599585        6.3535694650        6.3563224103
  N         2.9011805335        6.7436390331        5.1888170986
  C         1.5837514617        6.4821337933        5.4672682204
  N        13.7497137996        6.6902050100       15.9839096146
  C        12.4297259189        6.4059745538       16.2347380546
  N        15.9374134042        5.1897705963       19.6910717147
  C        16.2105696727        5.4479977467       21.0079060275
  N        15.9493473881       16.0277367150        8.9521188055
  C        16.2295421142       16.2978745802       10.2703747141
  N        15.9085889659       17.5291112038        3.0863209360
  C        16.1963364637       17.2720860585        1.7717463373
  N        15.8420813279        6.8577327477       13.8094534988
  C        16.1049426968        6.5571817837       12.4940268339
  N         6.5557322606        5.1335690237        2.9878053131
  C         6.2974057987        5.4231423410        1.6738353759
  N         6.7355713601       16.0267969943       13.8608622467
  C         6.4559280951       16.2830592600       12.5403249052
  N         6.6441017895       17.5762969172       19.7310684795
  C         6.3673469683       17.2963636635       21.0450323404
  N         6.6486313758        6.6906318301        8.8495587565
  C         6.3729387453        6.4383873196       10.1710204304
  N        19.6144253046       17.5393508658        6.7762716709
  C        20.9293546026       17.2631872203        6.5004972999
  N         8.8312525229       17.6144144679       17.6144677531
  C        10.1570104933       17.3622389247       17.3624400507
  N         2.9012920385        5.1883286864        6.7443481366
  C         1.5838115173        5.4666668899        6.4829676225
  N        13.7415698165        5.1934295041       17.5935170185
  C        12.4249469082        5.4309887200       17.2890288049
  N         2.9841544263       17.5455580158       15.9909282764
  C         1.6673686425       17.2880469336       16.2725814952
  N        13.7423078970       17.5920513412        5.1946712561
  C        12.4256607864       17.2880762330        5.4326582057
  N        19.6012644850        5.2407185044       15.9646869208
  C        20.9219597232        5.4950310359       16.2376361380
  N         8.7388936369        5.0873793017        5.0874601898
  C        10.0635679245        5.3401208089        5.3412955742
  N         6.6440657586       19.7309200882       17.5763775136
  C         6.3672858361       21.0448886486       17.2965037410
  N         6.6492376274        8.8491587337        6.6906282391
  C         6.3734773574       10.1706160152        6.4384129110
  N         6.5559686147        2.9874796165        5.1337687085
  C         6.2976837758        1.6734665500        5.4232490166
  N         6.7355143799       13.8607037210       16.0269018632
  C         6.4558651161       12.5401708938       16.2831932996
  N        15.9084973991        3.0863528910       17.5293827129
  C        16.1963172062        1.7718526480       17.2721444624
  N        15.8444824465       13.8084387822        6.8557842072
  C        16.1074770322       12.4929898960        6.5550083777
  N        15.9374479035       19.6909769014        5.1899435668
  C        16.2105720677       21.0078552126        5.4482769396
  N        15.9498225860        8.9520080185       16.0284438180
  C        16.2300544455       10.2703002752       16.2981364298
  N        17.4793493477        6.7583386252       19.7020437234
  C        17.2154114321        6.4736846591       21.0168563740
  N        17.4976154766       17.5892882175        8.9406374767
  C        17.2421041026       17.3168444606       10.2606752239
  N         5.0255438489        6.7135142070        2.9977096794
  C         5.2981384212        6.4546422916        1.6780563090
  N         5.1496865495       17.5527003169       13.8554506368
  C         5.4207618063       17.2791276108       12.5394167441
  N        17.4438282222       15.9535083649        3.0917325384
  C        17.1992600406       16.2439490762        1.7727294836
  N        17.4037735689        5.3028410517       13.8329363125
  C        17.1264777162        5.5461906717       12.5120422582
  N         5.1086634985       16.0013886503       19.7130080744
  C         5.3635631757       16.2690742181       21.0339002800
  N         5.0802223281        5.1482179330        8.8636000295
  C         5.3507948205        5.4290626810       10.1785858442
  N        17.5274791515       19.7738649980       16.0465148471
  C        17.2384530703       21.0922265843       16.2917431508
  N        17.4020420146        8.8795281519        5.1701619646
  C        17.1293425914       10.1901027038        5.4746721657
  N         5.0715282026        3.0312302293       15.9800284094
  C         5.3454348380        1.7151494972       16.2571490421
  N         5.0710149681       13.8181599735        5.1856114330
  C         5.3436733606       12.4994838938        5.4480592522
  N        17.4696655271        3.0162197700        6.7181516118
  C        17.2118012782        1.6951960283        6.4548203119
  N        17.5267652619       13.8998548836       17.6199251978
  C        17.2580479954       12.5844493843       17.3341117264
  N         5.0700525507       19.6783461397        6.7641598921
  C         5.3212070781       20.9966865390        6.4795763556
  N         5.1058841436        8.9032730153       17.5182154073
  C         5.3997154614       10.2186779412       17.2633094603
  N        19.5852037729        6.7552092876        5.2004470801
  C        20.9029581016        6.4877977431        5.4730542522
  N         8.7931366849        6.6684935602       15.9367394250
  C        10.1077408604        6.3910506063       16.2153228114
  N         2.9282534739        6.7593329406       17.5250586551
  C         1.6097185471        6.4920179753       17.2579775561
  N        13.7160384478        6.6019355182        6.6052330998
  C        12.3977348373        6.3356161479        6.3388290993
  N         2.9214458072       15.9698569433        5.2019902348
  C         1.6045851612       16.2402209543        5.4780997400
  N        13.8233286152       16.1138104550       16.1144370979
  C        12.5007098703       16.3726440524       16.3732011319
  N        19.6719468622       16.0478096711       17.6036626202
  C        20.9887251784       16.3004417985       17.3160551864
  N         8.7935567096       15.9365084759        6.6697999365
  C        10.1082817555       16.2151246578        6.3929170853
  N         6.6162943117       17.5456782629        3.0430177029
  C         6.3528632369       17.2805926754        1.7243343658
  N         6.6255004544        6.7421600468       13.8121944787
  C         6.3600092625        6.4625111885       12.4947011546
  N         6.6038616317        5.1884505499       19.6819669635
  C         6.3218834855        5.4496912178       20.9972125507
  N         6.6921602088       15.9916486375        8.8935399784
  C         6.4349412320       16.2670088201       10.2147507630
  N        15.9883056880       17.6195081977       19.7794178965
  C        16.2341816684       17.3187511796       21.0945305551
  N        15.8226964922        6.7051587748        8.8419049373
  C        16.0986393138        6.4797130432       10.1665474174
  N        15.9410070102        5.1342073993        2.9940289772
  C        16.2123089195        5.4226279791        1.6826847422
  N        15.9732289081       16.0637479746       13.9168320746
  C        16.2443919588       16.3171498910       12.5954625522
 Zn        14.6729452474       14.8264378784       14.8262924985
 Br        13.1400925220       13.6513848090       13.6445664112
 Zn        14.6532296387        3.7936014457        3.7937910098
 Br        13.4011202560        2.4514180603        2.4518856062
 Zn         3.7821234296       14.6858823500        3.8956160275
 Br         2.4519215566       13.3906183879        2.5765129391
 Zn         3.7819731142        3.8955047072       14.6864770756
 Br         2.4516686382        2.5765441570       13.3910875273
 Zn         7.9475762629        8.0057297418       14.6738685607
 Br         9.2291308458        9.3180460400       13.3255937739
 Zn         7.9061325543       18.8391294244        3.8974600254
 Br         9.2203524529       20.1607369975        2.5891640122
 Zn        18.7248387201        8.0342093086        3.8938779076
 Br        20.0411023252        9.3605554211        2.5958317400
 Zn        18.8222901667       18.9093572393       14.7608515061
 Br        20.1315971897       20.2231712775       13.4397635733
 Zn         7.9475935501       14.6732967000        8.0061497504
 Br         9.2288594792       13.3252478631        9.3189868891
 Zn         7.9055835177        3.8971297202       18.8400321835
 Br         9.2199112327        2.5887518658       20.1614172077
 Zn        18.8222337679       14.7609301854       18.9091981848
 Br        20.1314325904       13.4394779260       20.2227434962
 Zn        18.7230890556        3.8950160469        8.0365211305
 Br        20.0384400047        2.5975244101        9.3640572721
 Zn        14.5212528532        7.9003315752        7.8975318844
 Br        12.9146809097        9.0506345161        9.0008438696
 Zn        14.7041902972       18.9396849555       18.9396798437
 Br        13.4094530259       20.2632608870       20.2633743149
 Zn         3.7931539313        8.0615111634       18.8064422845
 Br         2.4842141480        9.3817009769       20.1205215302
 Zn         3.7933179394       18.8061096042        8.0614989553
 Br         2.4844519850       20.1203892603        9.3815987148
 Zn        14.5881047886       14.8019795112        8.1025046537
 Br        12.9803231472       14.1772912562        9.5890408022
 Zn        14.6212012215        3.9036283689       18.8570456452
 Br        13.3208422695        2.5743843441       20.1658639173
 Zn         3.8408952439       14.7007600890       18.8358837621
 Br         2.5205514810       13.3831253361       20.1426808047
 Zn         3.7603869747        3.8776565134        8.0171676397
 Br         2.4431950475        2.5753049031        9.3428305359
 Zn         7.9480512617        7.9532982836        7.9536927974
 Br         9.2061916788        9.2940032408        9.2961518368
 Zn         7.9303209237       18.8883256382       18.8884085377
 Br         9.2130576330       20.2191394685       20.2191873688
 Zn        18.7796072001        8.0558906066       18.8670668493
 Br        20.1104435377        9.3374662834       20.1964064076
 Zn        18.7794831622       18.8665157908        8.0559473100
 Br        20.1100706601       20.1961113674        9.3376546082
 Zn        14.5852815067        8.1031977414       14.8066055126
 Br        12.9730875978        9.5933221304       14.2008090796
 Zn        14.6211130423       18.8556987561        3.9042698201
 Br        13.3205553957       20.1648697755        2.5754411178
 Zn         3.7600992085        8.0168504748        3.8784392676
 Br         2.4433577969        9.3426925608        2.5758782711
 Zn         3.8409248756       18.8358012212       14.7007840636
 Br         2.5206541795       20.1426457097       13.3831121401
 Zn         8.0338545679       14.7554504816       14.7556290025
 Br         9.3020776040       13.4175767846       13.4180477383
 Zn         7.8400527149        3.8141329987        3.8141727016
 Br         9.1355586090        2.4906206796        2.4907411741
 Zn        18.7129696344       14.6626722716        3.9863024245
 Br        20.0066657620       13.3203794454        2.6776885653
 Zn        18.7119050651        3.9876530705       14.6624404329
 Br        20.0049792658        2.6792737597       13.3193564104
 Zn         5.8530151690        5.9653466642       16.7506296045
 Zn        16.7539064964       16.8599225944       16.8597386364
 Zn        16.6578772038        5.9050759356        5.9045999918
 Zn         5.8532727804       16.7499265774        5.9654918264
 Zn         5.8321409544        5.9175843115        5.9181856538
 Zn        16.6692757890       16.7783615924        6.0151939738
 Zn         5.9156055582       16.7861412175       16.7862436213
 Zn        16.6689296720        6.0151823770       16.7790526762
  N         3.6710183387        5.9786024770       16.7466087222
  N        14.4605537339        5.8275563891        5.8288175540
  N        18.9257483090       16.8349149045       16.8348605423
  N         8.0404727558       16.7447638622        5.9307792771
  N        18.8385347325        5.9750845794        5.9760277073
  N         8.0398938155        5.9302089908       16.7455324743
  N         3.6713037943       16.7462914770        5.9786317956
  N        14.5580703955       16.8947788716       16.8950513947
  N        16.7010507897        3.7505746864        5.9195951511
  N        16.7486123450       14.6556978712       16.8508362106
  N        16.7692220166       19.0309602857       16.8472354084
  N        16.6135353192        8.1129725229        5.9158978879
  N         5.8454799297       18.9330412235        5.9822245836
  N         5.8883154360        8.1519670068       16.7492630486
  N         5.8415591412        3.7838092378       16.7606483902
  N         5.8477054186       14.5616968982        5.9679683303
  N         5.8418838771       16.7600519900        3.7839573442
  N         5.8474999652        5.9678124799       14.5621429607
  N        16.7692008329       16.8472766894       19.0308270654
  N        16.6099147321        5.9185528392        8.1136122184
  N         5.8450350691        5.9821076262       18.9334825729
  N         5.8883470532       16.7488677444        8.1521207259
  N        16.7016128115        5.9183392948        3.7504372245
  N        16.7488485286       16.8511415022       14.6556611188
  N         5.7882615104        3.7390838600        5.9158804566
  N         5.9439813791       14.6042767622       16.7943214597
  N        16.7051714881       18.9496713729        5.9817573781
  N        16.7156960303        8.2003478017       16.8114144026
  N         5.8824106040       18.9749568956       16.7916245050
  N         5.8651645791        8.1093652583        5.9125302886
  N        16.6649741511        3.8358472840       16.7340822940
  N        16.6306173185       14.5677559512        6.0898659583
  N         3.7312054067       16.7623774400       16.7624438353
  N        14.4919365080       16.8033810087        5.9591140978
  N        18.8607800060       16.7528518293        6.0140199237
  N         8.1030894565       16.8273707400       16.8274815458
  N        18.8604571673        6.0143872804       16.7527890378
  N         8.0080266041        5.8731088520        5.8736793447
  N         3.6478116904        5.9610519671        5.9616009606
  N        14.4912950772        5.9574650203       16.8045767889
  N        16.7051330088        5.9815766689       18.9497662185
  N        16.7154020674       16.8104218580        8.2003200498
  N        16.6653214007       16.7339562407        3.8356979151
  N        16.6284707912        6.0914465772       14.5684356525
  N         5.7880656027        5.9156655644        3.7394983039
  N         5.9440482098       16.7942346463       14.6044063061
  N         5.8824011679       16.7915761124       18.9750790765
  N         5.8648935969        5.9122183684        8.1098073627
  C        11.3501994828       15.8121166161       15.8127775159
  H        11.3725663573       15.0370941726       15.0377681027
  C        11.2189764973        4.7816417011        4.7821632027
  H        11.2040881109        4.0070471705        4.0064164612
  C         0.4400448717       15.6868940041        4.9392454058
  H         0.4365574835       14.9077408622        4.1675169068
  C         0.4397605928        4.9394451577       15.6868319067
  H         0.4363644405        4.1677743746       14.9076196782
  C        11.2686875759        6.9142427146       15.6471286563
  H        11.2696041619        7.6650643660       14.8497770270
  C        11.2620824071       17.8460986633        4.8948967732
  H        11.2600316917       18.6509334778        4.1501956215
  C         0.4234791441        7.0359246251        4.9214167076
  H         0.4242462386        7.8103669963        4.1447825959
  C         0.5080110680       17.8515583307       15.7354408379
  H         0.5084090107       18.6271126131       14.9599189272
  C        11.2691632580       15.6474307173        6.9170808831
  H        11.2701052880       14.8503022266        7.6682303318
  C        11.2612329201        4.8937321513       17.8472099457
  H        11.2589837178        4.1494863436       18.6524474055
  C         0.5079785236       15.7354134712       17.8515422155
  H         0.5083633040       14.9598753639       18.6270772392
  C         0.4236311718        4.9209640139        7.0371912515
  H         0.4246915605        4.1445898516        7.8118857635
  C        11.2444971224        6.8907751556        6.8951910355
  H        11.2613388781        7.6654126627        7.6697768609
  C        11.3082367473       17.9244255325       17.9245326487
  H        11.2893696088       18.6997250298       18.6996613745
  C         0.4527126194        7.0420120004       17.8141158924
  H         0.4572031264        7.8125237568       18.5946773498
  C         0.4530285055       17.8139378227        7.0420697171
  H         0.4575664701       18.5944137516        7.8126687973
  C        15.6924139515       11.4414271437       15.7560955937
  H        14.9048226542       11.4512884360       14.9942524373
  C        15.6688819909        0.5196385867        4.8769096549
  H        14.9034643082        0.5118117545        4.0911969757
  C         4.7954594796       11.3416559155        4.8918080065
  H         4.0167279222       11.3451065197        4.1196150126
  C         4.8096623750        0.5476474987       15.7082912737
  H         4.0412798911        0.5373976976       14.9258920629
  C        15.5507895152       11.3128668955        7.0578110096
  H        14.7625959113       11.2763063357        7.8172480050
  C        15.6709993167        0.6151391052       17.8513174258
  H        14.9043804976        0.6186516492       18.6359215333
  C         4.8511504209       11.3802165940       17.8107214283
  H         4.0610177847       11.3823591129       18.5714325175
  C         4.7679307115        0.5179441230        7.0256855770
  H         4.0047345467        0.5188817364        7.8132308743
  C         7.0058417884       11.3760159974       15.7377176930
  H         7.7935764628       11.3750628552       14.9747765886
  C         6.8514236584        0.5144709829        4.8775644531
  H         7.6157328455        0.5138196711        4.0909492839
  C        17.6824758724       11.3664078788        4.9656828115
  H        18.4635289493       11.3924035299        4.1954870786
  C        17.7616364918        0.6104983927       15.7107128531
  H        18.5286859901        0.6060497934       14.9270669508
  C         6.9176501318       11.3298328311        6.9984380938
  H         7.6943049558       11.3270526958        7.7727769407
  C         6.9039975018        0.5714356809       17.8445819988
  H         7.6719178633        0.5820082458       18.6276448221
  C        17.7991537022       11.4151766567       17.8749746554
  H        18.5703396942       11.4035614450       18.6546505041
  C        17.7580575687        0.5415492675        7.0213592453
  H        18.5243416576        0.5490675966        7.8059623508
  C        15.6917674638       15.7562450077       11.4416314518
  H        14.9041853281       14.9943332229       11.4516989431
  C        15.6687226787        4.8765214097        0.5195426853
  H        14.9031679026        4.0909367089        0.5115811975
  C         4.8097288218       15.7081069310        0.5477493075
  H         4.0413257216       14.9257316833        0.5374662667
  C         4.7952851728        4.8914910712       11.3421249367
  H         4.0166693030        4.1191825028       11.3456119798
  C         7.0058498978       15.7374806662       11.3761950853
  H         7.7935378304       14.9744928334       11.3752273306
  C         6.8510544132        4.8774514100        0.5148260739
  H         7.6153321402        4.0907998409        0.5140899468
  C        17.7618404814       15.7108667456        0.6102882955
  H        18.5289585612       14.9272818841        0.6058874987
  C        17.6797855250        4.9681014166       11.3667115164
  H        18.4609143951        4.1979142159       11.3922454442
  C        15.5482587931        7.0602727907       11.3140109415
  H        14.7610290636        7.8205904840       11.2782534316
  C        15.6709080979       17.8512145657        0.6150620203
  H        14.9041935811       18.6357207861        0.6186165100
  C         4.7676969217        7.0257212843        0.5184280205
  H         4.0045622484        7.8133204896        0.5194150687
  C         4.8512871565       17.8106273502       11.3803115620
  H         4.0611927589       18.5713806334       11.3824255629
  C         6.9170630878        6.9985198159       11.3302176461
  H         7.6935968032        7.7729780260       11.3273323169
  C         6.9041169866       17.8443283741        0.5716102490
  H         7.6720532587       18.6273769074        0.5822144384
  C        17.7583798665        7.0206200103        0.5416310717
  H        18.5247867802        7.8051072745        0.5493314633
  C        17.7989148429       17.8748001220       11.4148711875
  H        18.5702114050       18.6543679224       11.4030424851
 Kr        13.5206180646       11.2868352539       11.3055286211
