     409
 i =     176, E =    -5136.7146843627
  N         2.9966649273        5.2070296380       16.0344152455
  C         1.6783324422        5.4759430218       16.3013715023
  N        13.8021556250        5.2026851756        5.2026896276
  C        12.4849526746        5.4745149871        5.4745212684
  N        19.6894271375       17.5770460431       16.0205428168
  C        21.0071757291       17.3103946324       16.2945834772
  N         8.8593795793       17.5855863311        5.2139647201
  C        10.1771695913       17.3120271305        5.4794933867
  N        19.6652902605        5.2000256218        6.7558319797
  C        20.9829778162        5.4731620892        6.4888184764
  N         8.8593833579        5.2139602466       17.5855876444
  C        10.1771689358        5.4794829396       17.3120180062
  N         2.9922272596       17.5869988071        6.7655087004
  C         1.6752410395       17.3155201943        6.4930144294
  N        13.8291585785       17.5771402691       17.5771411129
  C        12.5107863684       17.3084133829       17.3084093406
  N        15.9550390246        3.0458738134        5.2005242259
  C        16.2273561543        1.7283270474        5.4698041579
  N        15.9783686800       13.8662277334       16.0187772139
  C        16.2465410154       12.5484531168       16.2895221165
  N        15.9816985011       19.7286514231       17.5745066110
  C        16.2480887737       21.0465797377       17.3030352504
  N        15.9604779447        8.9113026078        6.7568758576
  C        16.2327384778       10.2285652039        6.4869040993
  N         6.7036204066       19.7433625894        5.2152274662
  C         6.4297346237       21.0606507468        5.4841953195
  N         6.7038047738        8.9184687543       16.0263234771
  C         6.4352325271       10.2364831784       16.2963708911
  N         6.7081393015        3.0594115269       17.5901606565
  C         6.4410349319        1.7410820266       17.3193523842
  N         6.7070393263       13.8780294916        6.7590931877
  C         6.4356154817       12.5606410921        6.4894890836
  N         5.1527190414       16.0341254776        3.0569155375
  C         5.4254926254       16.3035502423        1.7396023625
  N         5.1440519351        5.2104453619       13.8795274663
  C         5.4142792285        5.4794986619       12.5614344422
  N        17.5350158689       16.0166675360       19.7307944324
  C        17.2625703821       16.2862595252       21.0481522648
  N        17.5149681244        5.1996460004        8.9090912527
  C        17.2476784886        5.4705034984       10.2270990777
  N         5.1464910593        6.7701961498       19.7406409480
  C         5.4137825201        6.4997111949       21.0588712509
  N         5.1481473972       17.5833111223        8.9206465099
  C         5.4201943088       17.3128602015       10.2379154480
  N        17.5116700638        6.7556980394        3.0474608885
  C        17.2435077860        6.4850021978        1.7296528644
  N        17.5343355595       17.5746525532       13.8647459890
  C        17.2621063891       17.3052955232       12.5474366528
  N         5.1369204711        3.0582474863        6.7703517719
  C         5.4086154157        1.7406052408        6.5001663552
  N         5.1588605803       13.8774108658       17.5854695045
  C         5.4252774275       12.5593214749       17.3139412724
  N        17.5218467525       19.7314065814        6.7537665620
  C        17.2486301039       21.0484952544        6.4842170414
  N        17.5251032979        8.9083764754       17.5780520920
  C        17.2575759549       10.2262105311       17.3067653771
  N         5.1622109156       19.7403401825       16.0309118984
  C         5.4301305040       21.0582471297       16.3019650958
  N         5.1360525131        8.9221096093        5.2177698312
  C         5.4112695160       10.2398475497        5.4828149233
  N        17.5261694732        3.0475899737       16.0173396678
  C        17.2578304868        1.7294685327       16.2867734009
  N        17.5255075105       13.8657249674        5.2018649405
  C        17.2528426200       12.5483752777        5.4712687275
  N         3.0069313869       16.0326588233       17.5883988851
  C         1.6890413984       16.3003579512       17.3160291345
  N        13.8167889937       16.0201850645        6.7564204222
  C        12.4989792449       16.2917362711        6.4887074499
  N        19.6802722001       16.0223320368        5.2008065834
  C        20.9971294548       16.2952695526        5.4724353337
  N         8.8683577516       16.0266237292       16.0266224524
  C        10.1866778163       16.2955309753       16.2955262828
  N        19.6759050536        6.7563977661       17.5789490554
  C        20.9941614853        6.4882646540       17.3108670387
  N         8.8490192230        6.7653344935        6.7653367595
  C        10.1660378925        6.4936346087        6.4936391766
  N         2.9819192030        6.7679916977        5.2122559501
  C         1.6642571798        6.4947250839        5.4790445310
  N        13.8167926961        6.7564159890       16.0201843940
  C        12.4989776378        6.4886972756       16.2917262228
  N        15.9660511374        5.1976582729       19.7286885574
  C        16.2328191685        5.4686616816       21.0468629853
  N        15.9703964959       16.0210567166        8.9097705078
  C        16.2424821898       16.2905694840       10.2271509472
  N        15.9701987849       17.5734938534        3.0449512503
  C        16.2424259103       17.3028007478        1.7277549534
  N        15.9693257612        6.7576285003       13.8676947228
  C        16.2372557057        6.4870586017       12.5498010722
  N         6.6909250365        5.2130449024        3.0601574530
  C         6.4234266056        5.4836760941        1.7421343110
  N         6.7125666919       16.0280325142       13.8752590719
  C         6.4397269404       16.2971447890       12.5578656230
  N         6.7180033695       17.5868230242       19.7417984002
  C         6.4457876320       17.3176999722       21.0593703857
  N         6.7007520889        6.7653236346        8.9221567664
  C         6.4336067336        6.4916804815       10.2395619730
  N        19.6759050438       17.5789484879        6.7564002492
  C        20.9941598234       17.3108704264        6.4882650055
  N         8.8715900139       17.5829762632       17.5829739852
  C        10.1889136714       17.3113072194       17.3113016867
  N         2.9819152627        5.2122508015        6.7679922833
  C         1.6642591187        5.4790431765        6.4947232441
  N        13.8158064441        5.1994099144       17.5749050943
  C        12.4983251286        5.4726281646       17.3070177453
  N         3.0069302606       17.5884000498       16.0326593254
  C         1.6890406858       17.3160293098       16.3003588689
  N        13.8158042014       17.5749064057        5.1994129134
  C        12.4983272334       17.3070271512        5.4726383584
  N        19.6802681880        5.2008059854       16.0223327547
  C        20.9971339337        5.4724359798       16.2952657283
  N         8.8450174208        5.2098046520        5.2098101696
  C        10.1634062464        5.4780192576        5.4780259366
  N         6.7180006209       19.7417965033       17.5868212579
  C         6.4457889163       21.0593723183       17.3176977775
  N         6.7007536772        8.9221580974        6.7653250294
  C         6.4336053276       10.2395619026        6.4916822646
  N         6.6909256825        3.0601514328        5.2130387807
  C         6.4234260995        1.7421364965        5.4836759961
  N         6.7125637939       13.8752637686       16.0280334845
  C         6.4397249176       12.5578642943       16.2971404872
  N        15.9701999534        3.0449511435       17.5734879655
  C        16.2424208371        1.7277522714       17.3027918781
  N        15.9693335739       13.8677032366        6.7576277682
  C        16.2372585671       12.5497978389        6.4870649652
  N        15.9660496232       19.7286899346        5.1976602180
  C        16.2328163879       21.0468614695        5.4686653397
  N        15.9703964152        8.9097622849       16.0210496534
  C        16.2424865804       10.2271540505       16.2905579389
  N        17.5218483803        6.7537608198       19.7314053774
  C        17.2486332226        6.4842107683       21.0484964600
  N        17.5251012370       17.5780537541        8.9083914126
  C        17.2575649268       17.3067681708       10.2262044866
  N         5.1369144003        6.7703526876        3.0582434140
  C         5.4086118074        6.5001631390        1.7406077522
  N         5.1588616183       17.5854666612       13.8774137302
  C         5.4252788923       17.3139437004       12.5593200937
  N        17.5261715364       16.0173424092        3.0475956643
  C        17.2578393038       16.2867786075        1.7294694468
  N        17.5255000176        5.2018693135       13.8657351676
  C        17.2528398672        5.4712652693       12.5483685376
  N         5.1622121584       16.0309150149       19.7403371244
  C         5.4301283032       16.3019684105       21.0582471484
  N         5.1360510052        5.2177691523        8.9221120339
  C         5.4112715202        5.4828139453       10.2398467800
  N        17.5350135676       19.7307954222       16.0166686833
  C        17.2625620294       21.0481438290       16.2862557015
  N        17.5149722479        8.9090991502        5.1996396133
  C        17.2476798701       10.2270974112        5.4705054807
  N         5.1527181913        3.0569155326       16.0341250098
  C         5.4254949458        1.7396041714       16.3035485326
  N         5.1440517605       13.8795310722        5.2104485151
  C         5.4142755897       12.5614316513        5.4795000573
  N        17.5116692791        3.0474606326        6.7557012766
  C        17.2435045873        1.7296528082        6.4850069726
  N        17.5343372798       13.8647484189       17.5746592630
  C        17.2621166931       12.5474231917       17.3052961875
  N         5.1464974833       19.7406349929        6.7701944472
  C         5.4137863859       21.0588726829        6.4997143491
  N         5.1481450727        8.9206530625       17.5833179390
  C         5.4201931242       10.2379134243       17.3128587598
  N        19.6652851506        6.7558311750        5.2000306173
  C        20.9829806046        6.4888206329        5.4731628584
  N         8.8602924116        6.7681932917       16.0282927472
  C        10.1777353859        6.4944850509       16.2957004745
  N         2.9922248772        6.7655118500       17.5870002584
  C         1.6752423335        6.4930172203       17.3155175946
  N        13.8054131457        6.7590587818        6.7590602672
  C        12.4872824247        6.4902839737        6.4902881133
  N         2.9966616386       16.0344150394        5.2070264342
  C         1.6783320159       16.3013751364        5.4759400772
  N        13.8257817528       16.0210730169       16.0210748468
  C        12.5085563382       16.2926961684       16.2926928886
  N        19.6894276975       16.0205383428       17.5770485241
  C        21.0071770472       16.2945802534       17.3103966087
  N         8.8602957847       16.0282929901        6.7681964577
  C        10.1777314801       16.2957109370        6.4944946799
  N         6.7081410146       17.5901591985        3.0594092184
  C         6.4410337780       17.3193532638        1.7410819783
  N         6.7070391489        6.7590902498       13.8780331145
  C         6.4356180323        6.4894868127       12.5606392514
  N         6.7036193218        5.2152335655       19.7433584251
  C         6.4297341667        5.4841957138       21.0606539624
  N         6.7038072526       16.0263191132        8.9184755287
  C         6.4352342951       16.2963737000       10.2364784895
  N        15.9816980791       17.5745081701       19.7286523401
  C        16.2480943550       17.3030418673       21.0465856486
  N        15.9604714192        6.7568797117        8.9113098600
  C        16.2327356251        6.4869003281       10.2285611661
  N        15.9550370536        5.2005235459        3.0458719904
  C        16.2273576007        5.4698013124        1.7283287318
  N        15.9783721028       16.0187784452       13.8662258547
  C        16.2465387912       16.2895316106       12.5484656975
 Zn        14.6837710637       14.7260108918       14.7260152305
 Br        13.3661553297       13.4133931715       13.4133941461
 Zn        14.6619984998        3.9068782405        3.9068797628
 Br        13.3429259293        2.5949530278        2.5949539675
 Zn         3.8550569391       14.7435666413        3.9125696853
 Br         2.5407568904       13.4286862031        2.5985600415
 Zn         3.8550587893        3.9125709039       14.7435665427
 Br         2.5407578831        2.5985623440       13.4286859817
 Zn         7.9982623448        8.0574188206       14.7319273407
 Br         9.3020940579        9.3732072676       13.4085574523
 Zn         8.0001263457       18.8816906549        3.9254199783
 Br         9.3133618951       20.1963491166        2.6094272124
 Zn        18.8070361033        8.0493596587        3.9048248465
 Br        20.1222881607        9.3617216051        2.5896740004
 Zn        18.8271384443       18.8697553443       14.7236376518
 Br        20.1431442048       20.1822071726       13.4090197856
 Zn         7.9982605587       14.7319270964        8.0574186506
 Br         9.3020945001       13.4085580628        9.3732068728
 Zn         8.0001272306        3.9254225274       18.8816911753
 Br         9.3133618671        2.6094293519       20.1963494364
 Zn        18.8271379186       14.7236336636       18.8697590007
 Br        20.1431449279       13.4090163784       20.1822090153
 Zn        18.8070372872        3.9048250153        8.0493582176
 Br        20.1222892983        2.5896763370        9.3617225420
 Zn        14.6676423214        8.0527140364        8.0527151197
 Br        13.3609543129        9.3706735905        9.3706741293
 Zn        14.6931437012       18.8708185128       18.8708216460
 Br        13.3778457906       20.1849169752       20.1849183251
 Zn         3.8516514035        8.0607807306       18.8771480215
 Br         2.5405262088        9.3785288627       20.1914524875
 Zn         3.8516506207       18.8771474386        8.0607803521
 Br         2.5405259403       20.1914529950        9.3785279757
 Zn        14.6751455108       14.7268538992        8.0517425037
 Br        13.3585034906       13.4155962840        9.3666136794
 Zn        14.6737609465        3.9028333554       18.8676196003
 Br        13.3593790858        2.5880560782       20.1810137200
 Zn         3.8691380977       14.7385343953       18.8793387769
 Br         2.5536343259       13.4254915626       20.1946467149
 Zn         3.8440832227        3.9222808563        8.0615167446
 Br         2.5313126245        2.6077639169        9.3781342314
 Zn         7.9931411995        8.0598196590        8.0598190662
 Br         9.3276058049        9.3642237790        9.3642231343
 Zn         8.0106038752       18.8777810609       18.8777804233
 Br         9.3289388157       20.1905000402       20.1904975049
 Zn        18.8163994806        8.0491437947       18.8741535177
 Br        20.1312121858        9.3620272112       20.1891156414
 Zn        18.8163994424       18.8741542052        8.0491482242
 Br        20.1312110040       20.1891183534        9.3620297099
 Zn        14.6751472767        8.0517406624       14.7268538565
 Br        13.3585042454        9.3666106698       13.4155950873
 Zn        14.6737599357       18.8676197829        3.9028335056
 Br        13.3593786097       20.1810154921        2.5880592134
 Zn         3.8440834685        8.0615166816        3.9222802812
 Br         2.5313122755        9.3781332732        2.6077633698
 Zn         3.8691360154       18.8793398243       14.7385348005
 Br         2.5536345890       20.1946490085       13.4254914426
 Zn         8.0048738509       14.7327364375       14.7327348809
 Br         9.3141641340       13.4157983635       13.4157961854
 Zn         7.9825461575        3.9182598907        3.9182612420
 Br         9.2947584219        2.6025248496        2.6025255531
 Zn        18.8209099314       14.7246073133        3.9083145308
 Br        20.1355192659       13.4100024466        2.5949032524
 Zn        18.8209102817        3.9083115951       14.7246076890
 Br        20.1355189985        2.5949015083       13.4100000714
 Zn         5.9292870121        5.9941781985       16.8140486584
 Zn        16.7628612142       16.7953459157       16.7953522180
 Zn        16.7291111478        5.9782421845        5.9782416655
 Zn         5.9292856422       16.8140468091        5.9941774002
 Zn         5.9104573932        5.9958841231        5.9958840071
 Zn        16.7503071086       16.7981436805        5.9760905244
 Zn         5.9431617972       16.8127057401       16.8127051868
 Zn        16.7503083607        5.9760848395       16.7981426206
  N         3.7414111356        5.9872155429       16.8117992682
  N        14.5501672803        5.9801119923        5.9801139485
  N        18.9430660835       16.7967877170       16.7967918081
  N         8.1130548382       16.8086610426        5.9931891207
  N        18.9183372512        5.9763540006        5.9763450958
  N         8.1130545326        5.9931956293       16.8086577185
  N         3.7414097731       16.8118020079        5.9872181485
  N        14.5742844088       16.7983851265       16.7983880836
  N        16.7322469039        3.7934057112        5.9785041096
  N        16.7574418728       14.6121978074       16.7963432326
  N        16.7599469034       18.9827451970       16.7962359475
  N        16.7364172427        8.1634202634        5.9779487305
  N         5.9268249183       18.9954620572        5.9932891887
  N         5.9252990039        8.1731755153       16.8051006798
  N         5.9288796153        3.8050452896       16.8125397274
  N         5.9258730661       14.6256667385        5.9852216789
  N         5.9288785934       16.8125351405        3.8050436964
  N         5.9258806862        5.9852268807       14.6256673941
  N        16.7599489165       16.7962310668       18.9827473959
  N        16.7364299552        5.9779375404        8.1634195810
  N         5.9268321558        5.9932826920       18.9954623313
  N         5.9252872330       16.8051078912        8.1731760159
  N        16.7322476323        5.9785053913        3.7934062463
  N        16.7574448893       16.7963355606       14.6122002618
  N         5.9129306880        3.8061298327        5.9914968885
  N         5.9375178726       14.6233316799       16.8074497759
  N        16.7456373695       18.9832724979        5.9752256099
  N        16.7466617358        8.1622367547       16.8000544555
  N         5.9411774313       18.9944573103       16.8083657479
  N         5.9159367037        8.1755681286        5.9938083291
  N        16.7473417655        3.7928806643       16.7957314961
  N        16.7486129702       14.6134610468        5.9800188609
  N         3.7538030020       16.8116873915       16.8116860228
  N        14.5631356800       16.7966513016        5.9765636903
  N        18.9315249924       16.7995850621        5.9778851889
  N         8.1235809503       16.8056089973       16.8056081772
  N        18.9315245298        5.9778759097       16.7995813783
  N         8.1000327508        5.9886191056        5.9886220472
  N         3.7285767169        5.9920128893        5.9920064561
  N        14.5631372765        5.9765654736       16.7966509805
  N        16.7456384925        5.9752221304       18.9832715591
  N        16.7466580606       16.8000506616        8.1622435758
  N        16.7473451628       16.7957295390        3.7928831978
  N        16.7486261132        5.9800001268       14.6134613655
  N         5.9129398360        5.9914891967        3.8061303510
  N         5.9375098811       16.8074561551       14.6233314466
  N         5.9411751003       16.8083625804       18.9944562186
  N         5.9159385401        5.9938120591        8.1755684955
  C        11.3462881355       15.7445670018       15.7445627203
  H        11.3444196302       14.9690539801       14.9690522665
  C        11.3225413985        4.9266225769        4.9266308464
  H        11.3200101289        4.1511326422        4.1511423531
  C         0.5199520699       15.7490129900        4.9240355712
  H         0.5236838109       14.9740048509        4.1480289004
  C         0.5199516810        4.9240384117       15.7490086867
  H         0.5236864259        4.1480304797       14.9740013156
  C        11.3387342573        7.0410474470       15.7437434619
  H        11.3395559152        7.8164228530       14.9681159119
  C        11.3373259115       17.8591699441        4.9262199483
  H        11.3366005171       18.6348247257        4.1508166024
  C         0.5035979617        7.0415901711        4.9265082881
  H         0.5036988117        7.8174249545        4.1513184426
  C         0.5282029064       17.8630291947       15.7481894283
  H         0.5282871461       18.6386986349       14.9728346282
  C        11.3387339331       15.7437549197        7.0410598677
  H        11.3395552339       14.9681251206        7.8164321476
  C        11.3373274814        4.9262084802       17.8591592658
  H        11.3366011117        4.1508087551       18.6348178832
  C         0.5282044716       15.7481864148       17.8630297354
  H         0.5282911084       14.9728309374       18.6386982823
  C         0.5035980128        4.9265048750        7.0415869603
  H         0.5036983774        4.1513125351        7.8174195732
  C        11.3282283388        7.0416461689        7.0416499860
  H        11.3299132349        7.8171873621        7.8171895821
  C        11.3511779026       17.8593864955       17.8593804344
  H        11.3531729353       18.6348953588       18.6348905432
  C         0.5125943641        7.0408031487       17.8625325378
  H         0.5090146772        7.8169031375       18.6374599470
  C         0.5125970565       17.8625351487        7.0408018045
  H         0.5090171105       18.6374602002        7.8169044605
  C        15.6950658712       11.3884489137       15.7400541129
  H        14.9198584318       11.3895757459       14.9642522760
  C        15.6799925225        0.5666353192        4.9199286855
  H        14.9039228232        0.5650132426        4.1449647767
  C         4.8600308102       11.4006720221        4.9345238450
  H         4.0800245130       11.4004602691        4.1635457966
  C         4.8781466473        0.5782369436       15.7530615729
  H         4.1025025179        0.5769603935       14.9776430167
  C        15.6855250632       11.3901712953        7.0369043586
  H        14.9103746927       11.3915516892        7.8127731141
  C        15.6957197397        0.5659558026       17.8528148389
  H        14.9207013513        0.5638309976       18.6288371984
  C         4.8735309764       11.3995669931       17.8635578400
  H         4.0991110496       11.4009562935       18.6401664387
  C         4.8617443004        0.5784943828        7.0497156076
  H         4.0867569051        0.5763086673        7.8257276434
  C         6.9864407751       11.3963349243       15.7463660959
  H         7.7612682061       11.3950642200       14.9701685601
  C         6.9758501918        0.5827212006        4.9338957291
  H         7.7509569872        0.5849874952        4.1579573388
  C        17.7996864124       11.3867203816        4.9208963519
  H        18.5747837440       11.3851349761        4.1449680087
  C        17.8093787663        0.5700185861       15.7362781063
  H        18.5845217453        0.5719326724       14.9603968164
  C         6.9887035566       11.4000293134        7.0355342406
  H         7.7688152719       11.4002699838        7.8063003086
  C         6.9930233860        0.5809726726       17.8682008465
  H         7.7684573917        0.5821185532       18.6437634421
  C        17.8095654409       11.3860710546       17.8557819437
  H        18.5851362342       11.3850257156       18.6312373249
  C        17.7958669981        0.5700866287        7.0341725991
  H        18.5717131538        0.5717670778        7.8093417811
  C        15.6950547239       15.7400604908       11.3884518880
  H        14.9198520394       14.9642594322       11.3895790961
  C        15.6799934720        4.9199254268        0.5666337622
  H        14.9039222103        4.1449636187        0.5650130896
  C         4.8781433848       15.7530650854        0.5782357184
  H         4.1024996442       14.9776462607        0.5769583635
  C         4.8600333640        4.9345215788       11.4006722969
  H         4.0800272156        4.1635437826       11.4004610486
  C         6.9864444628       15.7463699717       11.3963350062
  H         7.7612706028       14.9701719617       11.3950643988
  C         6.9758515276        4.9338982387        0.5827222237
  H         7.7509620735        4.1579630602        0.5849873950
  C        17.8093860435       15.7362862284        0.5700204233
  H        18.5845283983       14.9604021871        0.5719366840
  C        17.7996844263        4.9208944437       11.3867201183
  H        18.5747831982        4.1449673909       11.3851333292
  C        15.6855191872        7.0368993276       11.3901709992
  H        14.9103678295        7.8127663045       11.3915522891
  C        15.6957282413       17.8528215978        0.5659559864
  H        14.9207068183       18.6288432958        0.5638314684
  C         4.8617375528        7.0497103911        0.5784959633
  H         4.0867479248        7.8257197690        0.5763093817
  C         4.8735320972       17.8635594121       11.3995652160
  H         4.0991092983       18.6401653214       11.4009554568
  C         6.9887064504        7.0355321857       11.4000298536
  H         7.7688179816        7.8062979719       11.4002692808
  C         6.9930225072       17.8682023343        0.5809727078
  H         7.7684585622       18.6437629439        0.5821185801
  C        17.7958722428        7.0341663088        0.5700852318
  H        18.5717191353        7.8093342854        0.5717664745
  C        17.8095600088       17.8557895244       11.3860759235
  H        18.5851316937       18.6312384440       11.3850311073
 Kr         5.4716027037       10.2260609402       10.2260643217
