     409
 i =     176, E =    -5136.7131306432
  N         2.8747799801        5.2042821364       16.0251877406
  C         1.5569682959        5.4742070491       16.2952757594
  N        13.6947687220        5.2065851100        5.2066530948
  C        12.3770605217        5.4768811165        5.4769137918
  N        19.5592787619       17.5799797882       16.0241672521
  C        20.8770305282       17.3096488296       16.2939817195
  N         8.7380341009       17.5808392576        5.2057904927
  C        10.0557617091       17.3090340042        5.4744668988
  N        19.5567606318        5.2024091743        6.7583449534
  C        20.8744649298        5.4728740812        6.4885461020
  N         8.7378697617        5.2058178184       17.5807995231
  C        10.0556070281        5.4744775964       17.3090181128
  N         2.8742295164       17.5809199280        6.7610115736
  C         1.5566832876       17.3107138661        6.4902602926
  N        13.6963754310       17.5789803264       17.5790541528
  C        12.3787170684       17.3089791584       17.3090108070
  N        15.8468106669        3.0513087066        5.2052527238
  C        16.1172926491        1.7334336797        5.4743604083
  N        15.8511862787       13.8701809204       16.0226976044
  C        16.1218409698       12.5525141669       16.2920267462
  N        15.8502705885       19.7332429966       17.5789374704
  C        16.1198281569       21.0508247489       17.3082368571
  N        15.8552717789        8.9152371867        6.7662446001
  C        16.1284555914       10.2324892172        6.4986741384
  N         6.5847967474       19.7355602361        5.2054954548
  C         6.3142986508       21.0532655918        5.4753236479
  N         6.5845193226        8.9149514544       16.0249373742
  C         6.3147139007       10.2327159855       16.2950943207
  N         6.5851533722        3.0521749495       17.5817710517
  C         6.3161515259        1.7343377229       17.3110486024
  N         6.5833063148       13.8721200019        6.7612136660
  C         6.3136376551       12.5544807746        6.4906221954
  N         5.0296431326       16.0260143270        3.0516611579
  C         5.3006735285       16.2954538853        1.7340316440
  N         5.0285283009        5.2044997448       13.8721942241
  C         5.2985886385        5.4743929152       12.5544663884
  N        17.4053488875       16.0218202451       19.7332287796
  C        17.1349608436       16.2917773941       21.0509348787
  N        17.4092577445        5.2082778956        8.9144294726
  C        17.1425660149        5.4814201935       10.2321654928
  N         5.0281333844        6.7611766167       19.7356966553
  C         5.2981588570        6.4907859414       21.0532523592
  N         5.0290508234       17.5815134806        8.9154542865
  C         5.2994027375       17.3111684461       10.2329634725
  N        17.4012856278        6.7620748262        3.0509607332
  C        17.1321453144        6.4906492493        1.7332671700
  N        17.4073131513       17.5781222690       13.8701762132
  C        17.1377497825       17.3074637800       12.5525035323
  N         5.0279080114        3.0520990598        6.7609576550
  C         5.2980746714        1.7345035368        6.4906416849
  N         5.0301921446       13.8719249099       17.5812837375
  C         5.2998897158       12.5542427441       17.3110628873
  N        17.4028082858       19.7340970137        6.7597433043
  C        17.1328607339       21.0517657517        6.4894576407
  N        17.4049457189        8.9134886882       17.5800241963
  C        17.1365128813       10.2311692427       17.3084673914
  N         5.0307968805       19.7351604229       16.0252406538
  C         5.3012408908       21.0527745560       16.2950702801
  N         5.0279290844        8.9155760175        5.2047091765
  C         5.2983864316       10.2332242439        5.4745315885
  N        17.4035934191        3.0502972463       16.0215211480
  C        17.1340570276        1.7324063754       16.2916225281
  N        17.4093310994       13.8710301709        5.2077097719
  C        17.1426209429       12.5533311241        5.4811424416
  N         2.8762032404       16.0250356839       17.5811342508
  C         1.5585356632       16.2943957816       17.3100989299
  N        13.6950427629       16.0206416764        6.7583087877
  C        12.3773139558       16.2910875143        6.4882344724
  N        19.5577773179       16.0258887451        5.2025722721
  C        20.8754652476       16.2956811856        5.4732877826
  N         8.7386575219       16.0243476697       16.0242935398
  C        10.0566708879       16.2939663115       16.2939373689
  N        19.5573161803        6.7589677234       17.5812286007
  C        20.8751108991        6.4893091043       17.3109892740
  N         8.7373313523        6.7621822556        6.7621400471
  C        10.0552189201        6.4922464933        6.4922277492
  N         2.8736459931        6.7613168196        5.2050040382
  C         1.5559675314        6.4900104984        5.4742381913
  N        13.6949350216        6.7582654320       16.0206861387
  C        12.3771970514        6.4882079567       16.2911163006
  N        15.8477850480        5.2025074492       19.7343473320
  C        16.1177690367        5.4729382617       21.0520186563
  N        15.8485135810       16.0246165658        8.9138796882
  C        16.1206082390       16.2929879686       10.2313933851
  N        15.8491451447       17.5784536167        3.0497213918
  C        16.1192646283       17.3079763824        1.7321360623
  N        15.8557615516        6.7656472760       13.8709311206
  C        16.1286002123        6.4984662213       12.5533726630
  N         6.5841086739        5.2057812653        3.0525867759
  C         6.3139884528        5.4754539145        1.7347226410
  N         6.5853043711       16.0249541197       13.8718151176
  C         6.3151993427       16.2950892864       12.5540918974
  N         6.5871196139       17.5812635320       19.7351741925
  C         6.3171196349       17.3107930921       21.0528218787
  N         6.5829912103        6.7617885370        8.9155518240
  C         6.3134025271        6.4909135442       10.2331601179
  N        19.5574564138       17.5811809986        6.7590234812
  C        20.8752496682       17.3109852316        6.4893186041
  N         8.7398356343       17.5802119589       17.5801410330
  C        10.0573591277       17.3096515262       17.3096160671
  N         2.8736695507        5.2050554345        6.7612554244
  C         1.5559841303        5.4742712222        6.4899738765
  N        13.6948603511        5.2030374395       17.5781177336
  C        12.3772050453        5.4731352838       17.3075751464
  N         2.8761745534       17.5811850680       16.0249549323
  C         1.5585162976       17.3101351670       16.2943469336
  N        13.6950112351       17.5780682726        5.2030842329
  C        12.3773515712       17.3075453261        5.4731623569
  N        19.5576386324        5.2025088918       16.0259388528
  C        20.8753282808        5.4732766762       16.2956862173
  N         8.7374962441        5.2063088298        5.2062457592
  C        10.0552964658        5.4765873779        5.4765607941
  N         6.5870864672       19.7352529093       17.5811767697
  C         6.3170395712       21.0528954073       17.3107158080
  N         6.5830153066        8.9156181874        6.7617274489
  C         6.3134475178       10.2332302925        6.4908488021
  N         6.5841155287        3.0526741063        5.2056646000
  C         6.3140301204        1.7348042364        5.4753421670
  N         6.5852814842       13.8718843387       16.0248978228
  C         6.3151546941       12.5541637527       16.2950325823
  N        15.8489932479        3.0496288380       17.5785202975
  C        16.1191278387        1.7320471518       17.3080438444
  N        15.8558646445       13.8708799001        6.7657133527
  C        16.1286863021       12.5533190076        6.4985317455
  N        15.8479088844       19.7342613195        5.2026016648
  C        16.1178681469       21.0519351263        5.4730416712
  N        15.8484041505        8.9138256900       16.0246759476
  C        16.1205189220       10.2313361769       16.2930452429
  N        17.4026756674        6.7596566486       19.7341634361
  C        17.1327560331        6.4893592380       21.0518347375
  N        17.4050834249       17.5799497051        8.9135656904
  C        17.1366145237       17.3084011134       10.2312424901
  N         5.0278930452        6.7610628738        3.0520431208
  C         5.2980301973        6.4907518201        1.7344428968
  N         5.0302048038       17.5813299486       13.8718332410
  C         5.2999300666       17.3111147240       12.5541556147
  N        17.4037444828       16.0214499626        3.0503713665
  C        17.1341939618       16.2915534242        1.7324813371
  N        17.4092020826        5.2076244721       13.8711000204
  C        17.1425222286        5.4810670030       12.5533978222
  N         5.0308233747       16.0253416745       19.7351130855
  C         5.3013128936       16.2951580175       21.0527219203
  N         5.0279156946        5.2047644458        8.9154914441
  C         5.2983453979        5.4745942533       10.2331411835
  N        17.4052983514       19.7331632733       16.0219028134
  C        17.1348760476       21.0508645567       16.2918501376
  N        17.4092590365        8.9143603969        5.2083275119
  C        17.1426036168       10.2320994341        5.4814813249
  N         5.0294888698        3.0517141987       16.0259264626
  C         5.3005322296        1.7340865810       16.2953698018
  N         5.0286307382       13.8722853406        5.2044247251
  C         5.2986725756       12.5545529501        5.4743218941
  N        17.4013192519        3.0508985437        6.7621748002
  C        17.1321999462        1.7331994174        6.4907549355
  N        17.4073120621       13.8700946832       17.5781774164
  C        17.1377148699       12.5524274996       17.3075230650
  N         5.0282649514       19.7357513041        6.7610872238
  C         5.2982652707       21.0533095569        6.4906822374
  N         5.0289509270        8.9155400813       17.5814549963
  C         5.2993202603       10.2330477473       17.3111119093
  N        19.5567334281        6.7583008887        5.2024403638
  C        20.8744470086        6.4885287880        5.4728860589
  N         8.7376112693        6.7607361254       16.0239837063
  C        10.0554853262        6.4895114920       16.2927102011
  N         2.8741011221        6.7610924041       17.5808361723
  C         1.5565524624        6.4903174471       17.3106534648
  N        13.6946856951        6.7629073223        6.7629506874
  C        12.3769332204        6.4926324894        6.4926552738
  N         2.8749075950       16.0252882384        5.2041937003
  C         1.5570987201       16.2953425120        5.4741454896
  N        13.6960182980       16.0227619843       16.0228185744
  C        12.3783618510       16.2932215894       16.2932465114
  N        19.5593099685       16.0241092285       17.5800180702
  C        20.8770519175       16.2939609519       17.3096628579
  N         8.7377282836       16.0240246928        6.7607046116
  C        10.0556085615       16.2927257838        6.4894997905
  N         6.5853445897       17.5818291466        3.0520992018
  C         6.3163114660       17.3111147621        1.7342661514
  N         6.5832027576        6.7612856553       13.8720495626
  C         6.3135536310        6.4906919623       12.5544070545
  N         6.5846408647        5.2055757229       19.7354847491
  C         6.3141834971        5.4754197098       21.0531923975
  N         6.5846210347       16.0249990570        8.9148831733
  C         6.3147972019       16.2951531767       10.2326443209
  N        15.8503068988       17.5788500066       19.7333343417
  C        16.1199074880       17.3081616047       21.0509119697
  N        15.8552612593        6.7661933267        8.9152863334
  C        16.1284182211        6.4986137029       10.2325409304
  N        15.8467996158        5.2051302510        3.0514007073
  C        16.1172494068        5.4742441366        1.7335197934
  N        15.8511952081       16.0226407539       13.8702358685
  C        16.1218757848       16.2919680605       12.5525719510
 Zn        14.5573687407       14.7283067368       14.7283510559
 Br        13.2435085023       13.4138406303       13.4138767024
 Zn        14.5547185295        3.9111485502        3.9112770303
 Br        13.2375567617        2.5981423352        2.5982587588
 Zn         3.7363503555       14.7312646222        3.9093510010
 Br         2.4216912357       13.4174210467        2.5949560996
 Zn         3.7362505318        3.9094351891       14.7311540124
 Br         2.4215621930        2.5950703956       13.4173062976
 Zn         7.8776968666        8.0545838352       14.7299193237
 Br         9.1924439880        9.3688945179       13.4160278671
 Zn         7.8793156545       18.8750307300        3.9115496102
 Br         9.1933266796       20.1905444555        2.5981949517
 Zn        18.6975034990        8.0536873957        3.9091126199
 Br        20.0118945639        9.3676558183        2.5946241279
 Zn        18.7006542571       18.8730953244       14.7285333477
 Br        20.0147509463       20.1875515549       13.4143436610
 Zn         7.8778153446       14.7299670702        8.0545433834
 Br         9.1925250764       13.4160530397        9.3688616934
 Zn         7.8790779304        3.9115970302       18.8749904467
 Br         9.1930950784        2.5982344928       20.1905002630
 Zn        18.7007037214       14.7284534509       18.8731187328
 Br        20.0147744359       13.4142414790       20.1875776251
 Zn        18.6975570096        3.9090918209        8.0537473500
 Br        20.0119120917        2.5946014430        9.3677488555
 Zn        14.5579864559        8.0562182353        8.0562506678
 Br        13.2495673452        9.3734324474        9.3734616029
 Zn        14.5572375883       18.8731803446       18.8732718390
 Br        13.2424754559       20.1872598077       20.1873646163
 Zn         3.7353278029        8.0550266105       18.8748195986
 Br         2.4198275257        9.3693286304       20.1881520084
 Zn         3.7354280905       18.8748808402        8.0549567309
 Br         2.4199467097       20.1882502438        9.3692361792
 Zn        14.5569326259       14.7282596873        8.0542858351
 Br        13.2446818570       13.4129067480        9.3695164298
 Zn        14.5557667244        3.9080212864       18.8727838056
 Br        13.2398736123        2.5942674358       20.1861309920
 Zn         3.7371520788       14.7307732723       18.8750607366
 Br         2.4220277857       13.4175441773       20.1896516152
 Zn         3.7350567782        3.9103046520        8.0548839631
 Br         2.4197145156        2.5970287149        9.3693190487
 Zn         7.8768416790        8.0554800042        8.0554415842
 Br         9.1915686807        9.3697085366        9.3696839305
 Zn         7.8820391601       18.8744491278       18.8743663240
 Br         9.1957000808       20.1890532702       20.1889458222
 Zn        18.6974125157        8.0532075097       18.8745428124
 Br        20.0110922429        9.3673983609       20.1896546010
 Zn        18.6975930746       18.8744860068        8.0532706381
 Br        20.0112389864       20.1895899639        9.3674947484
 Zn        14.5568595280        8.0542435604       14.7283028448
 Br        13.2446228171        9.3694811911       13.4129397597
 Zn        14.5558924073       18.8727315764        3.9080818290
 Br        13.2400545337       20.1860956391        2.5942974884
 Zn         3.7350376774        8.0549584047        3.9102732390
 Br         2.4197172699        9.3694171450        2.5969938481
 Zn         3.7371350924       18.8750842716       14.7306587947
 Br         2.4220325303       20.1896838028       13.4174175950
 Zn         7.8789199297       14.7300408913       14.7299923968
 Br         9.1933486000       13.4158235498       13.4157944652
 Zn         7.8780530639        3.9118823357        3.9117585621
 Br         9.1924986886        2.5976724210        2.5975667430
 Zn        18.6996231669       14.7292491369        3.9094704703
 Br        20.0144829420       13.4148868551        2.5959512388
 Zn        18.6994523484        3.9093838845       14.7293258221
 Br        20.0143344025        2.5958570526       13.4149867230
 Zn         5.8016306711        5.9874276975       16.8077148889
 Zn        16.6235763005       16.8042745419       16.8044113147
 Zn        16.6216780710        5.9874359650        5.9875344500
 Zn         5.8017718661       16.8078223131        5.9873270917
 Zn         5.8009054755        5.9879594943        5.9878632002
 Zn        16.6218665051       16.8053034732        5.9847900868
 Zn         5.8035882241       16.8075452281       16.8074396834
 Zn        16.6217263484        5.9846607031       16.8054103867
  N         3.6209411314        5.9829174414       16.8030770685
  N        14.4412091048        5.9846852741        5.9847567155
  N        18.8124047557       16.8021966671       16.8022552724
  N         7.9909852379       16.8033190041        5.9839851173
  N        18.8098885636        5.9803222752        5.9803726127
  N         7.9908457887        5.9840226064       16.8032669581
  N         3.6210718024       16.8031809034        5.9828159488
  N        14.4427053556       16.8008058279       16.8008916782
  N        16.6236422880        3.7980663040        5.9843296423
  N        16.6288044018       14.6170076770       16.8008956944
  N        16.6279709866       18.9865784332       16.8006479244
  N        16.6302551573        8.1682024646        5.9857285557
  N         5.8066042288       18.9890701297        5.9834125039
  N         5.8064605432        8.1686661735       16.8032069406
  N         5.8066444147        3.7988732841       16.8042782326
  N         5.8057472004       14.6191669586        5.9830951465
  N         5.8068289308       16.8043523495        3.7988071296
  N         5.8056311875        5.9831690524       14.6190857887
  N        16.6279952708       16.8005531076       18.9866605853
  N        16.6302633215        5.9856853462        8.1682637812
  N         5.8064412057        5.9834902794       18.9890016149
  N         5.8065724566       16.8032686059        8.1685875371
  N        16.6236331983        5.9842172025        3.7981441654
  N        16.6287967839       16.8008424696       14.6170789193
  N         5.8059388805        3.7993378728        5.9834652481
  N         5.8077735405       14.6188520181       16.8031164691
  N        16.6252514862       18.9875483733        5.9812291139
  N        16.6255762453        8.1670126568       16.8032427449
  N         5.8086534336       18.9886489837       16.8035003465
  N         5.8050278666        8.1690070725        5.9836514879
  N        16.6261427523        3.7968425620       16.8001816206
  N        16.6306711111       14.6178723618        5.9848841881
  N         3.6227117011       16.8036773284       16.8035953704
  N        14.4414915784       16.7995597837        5.9808195357
  N        18.8107241727       16.8035741257        5.9805673187
  N         7.9923622080       16.8025667391       16.8024887733
  N        18.8105860479        5.9804842821       16.8036509674
  N         7.9905098590        5.9841955894        5.9841270962
  N         3.6201703491        5.9838350958        5.9837692889
  N        14.4413598757        5.9807631181       16.7996171243
  N        16.6251086922        5.9811438563       18.9876255503
  N        16.6257149929       16.8031732231        8.1670825680
  N        16.6263017391       16.8001109350        3.7969266665
  N        16.6305419123        5.9848057332       14.6179358704
  N         5.8059402827        5.9835790355        3.7992648505
  N         5.8077804035       16.8031644853       14.6187711059
  N         5.8086622892       16.8036047677       18.9885827400
  N         5.8050192363        5.9837042799        8.1689294375
  C        11.2171548338       15.7439785607       15.7439757675
  H        11.2166285304       14.9684570913       14.9684549917
  C        11.2162681302        4.9271484548        4.9271522686
  H        11.2165696431        4.1516366643        4.1516412943
  C         0.3963864434       15.7460231982        4.9239426481
  H         0.3965549542       14.9707104300        4.1482415995
  C         0.3962529986        4.9239746413       15.7459887262
  H         0.3964218674        4.1482764694       14.9706711425
  C        11.2162386419        7.0379588547       15.7418153507
  H        11.2160822946        7.8131704880       14.9660076260
  C        11.2165539391       17.8581024345        4.9244278503
  H        11.2166601285       18.6342539190        4.1495465830
  C         0.3951586443        7.0388834583        4.9238893291
  H         0.3950786426        7.8145758231        4.1485732898
  C         0.3977200668       17.8594057312       15.7444206107
  H         0.3977185957       18.6350366171       14.9690148741
  C        11.2163399193       15.7418067286        7.0379672467
  H        11.2161552420       14.9659992662        7.8131783880
  C        11.2163834492        4.9244220478       17.8581076403
  H        11.2164598462        4.1495413156       18.6342585441
  C         0.3977678841       15.7444354848       17.8593965333
  H         0.3978125279       14.9690299375       18.6350303147
  C         0.3951987080        4.9239006563        7.0388740167
  H         0.3951576202        4.1485856981        7.8145668948
  C        11.2158670143        7.0420400202        7.0420419808
  H        11.2154423766        7.8175450314        7.8175469975
  C        11.2182983721       17.8589370850       17.8589344239
  H        11.2188060168       18.6344543892       18.6344521367
  C         0.3956497047        7.0396773242       17.8602181221
  H         0.3954467485        7.8154630606       18.6354581010
  C         0.3957844707       17.8602518528        7.0396523034
  H         0.3955830088       18.6354946553        7.8154374312
  C        15.5716746483       11.3920066028       15.7426208538
  H        14.7959186453       11.3920410134       14.9673340834
  C        15.5683242918        0.5728764735        4.9236160660
  H        14.7930556415        0.5730833500        4.1478464948
  C         4.7492032143       11.3939092850        4.9243305199
  H         3.9739447536       11.3938911904        4.1485793054
  C         4.7512817074        0.5733688152       15.7454656499
  H         3.9755482208        0.5731955428       14.9701722388
  C        15.5808846945       11.3929614114        7.0504355844
  H        14.8067635581       11.3928363239        7.8273129930
  C        15.5700847923        0.5713387055       17.8580835920
  H        14.7949292783        0.5711097909       18.6339786597
  C         4.7500580662       11.3937972885       17.8609476011
  H         3.9746877951       11.3939775110       18.6366122570
  C         4.7481591057        0.5739038794        7.0400933228
  H         3.9722652848        0.5738349345        7.8152457897
  C         6.8644388489       11.3933303829       15.7452041275
  H         7.6397035505       11.3931145561       14.9694450095
  C         6.8639771134        0.5741364648        4.9257924756
  H         7.6397158576        0.5741984527        4.1505466857
  C        17.6921550656       11.3926353450        4.9313745151
  H        18.4659900958       11.3924708566        4.1541938005
  C        17.6836725060        0.5717912305       15.7416329954
  H        18.4586740387        0.5719472947       14.9656007712
  C         6.8629752877       11.3938575575        7.0407294338
  H         7.6378957038       11.3938365652        7.8168373739
  C         6.8663723027        0.5737792932       17.8604566643
  H         7.6417043657        0.5739473875       18.6361551593
  C        17.6872076857       11.3917453301       17.8572940712
  H        18.4627248804       11.3915985229       18.6328191122
  C        17.6818753834        0.5723655687        7.0400519571
  H        18.4567976113        0.5720639806        7.8161520592
  C        15.5717355376       15.7425656866       11.3920519183
  H        14.7959767224       14.9672803860       11.3920666801
  C        15.5682571605        4.9235021413        0.5729716726
  H        14.7929921743        4.1477302751        0.5731945857
  C         4.7513833071       15.7455550943        0.5733291935
  H         3.9756407073       14.9702699247        0.5731807126
  C         4.7491378369        4.9243979639       11.3938166784
  H         3.9738765448        4.1486511198       11.3937870044
  C         6.8645058730       15.7452635378       11.3932666826
  H         7.6397719858       14.9695073632       11.3930644438
  C         6.8638996157        4.9258952301        0.5740459261
  H         7.6396379027        4.1506457997        0.5740840505
  C        17.6837846997       15.7415667690        0.5718534765
  H        18.4587855409       14.9655340592        0.5719895743
  C        17.6920824427        4.9313006441       11.3927125511
  H        18.4659111114        4.1541134859       11.3925653604
  C        15.5808242167        7.0503743685       11.3930047401
  H        14.8067069348        7.8272539191       11.3928648639
  C        15.5701973807       17.8580131702        0.5714385052
  H        14.7950420124       18.6339099435        0.5712281518
  C         4.7480873547        7.0402049053        0.5738570348
  H         3.9721989057        7.8153622781        0.5738091488
  C         4.7501194026       17.8610037127       11.3937031887
  H         3.9747517209       18.6366712582       11.3938710668
  C         6.8629114760        7.0407996092       11.3937940216
  H         7.6378323064        7.8169081444       11.3937851686
  C         6.8665017728       17.8605195643        0.5736903345
  H         7.6418413564       18.6362083523        0.5738312167
  C        17.6817950401        7.0399521939        0.5724242858
  H        18.4567166440        7.8160532012        0.5721052217
  C        17.6872784038       17.8572260110       11.3918339926
  H        18.4628013271       18.6327449905       11.3917090080
 Kr        18.1818264960       10.2513531959       10.2514546781
