     409
 i =     176, E =    -5136.7146973730
  N         2.8899333675        5.2028432337       16.0248931729
  C         1.5721897276        5.4724939412       16.2955155521
  N        13.7083698525        5.2029687338        5.2030327043
  C        12.3906258806        5.4731554380        5.4731870452
  N        19.5717435890       17.5799340272       16.0237821107
  C        20.8893402806       17.3090968885       16.2934046783
  N         8.7532467295       17.5797796864        5.2034863158
  C        10.0707102494       17.3096077591        5.4743145860
  N        19.5729516476        5.2027089873        6.7586535592
  C        20.8905979481        5.4716098534        6.4873207130
  N         8.7530730817        5.2035271014       17.5797302721
  C        10.0705763136        5.4743310483       17.3095721519
  N         2.8899407137       17.5802046857        6.7592937277
  C         1.5723345561       17.3107775887        6.4885664799
  N        13.7096367436       17.5783282071       17.5784001305
  C        12.3920205263       17.3082713215       17.3082860658
  N        15.8626554010        3.0522857612        5.2058228872
  C        16.1323543606        1.7345292535        5.4762405809
  N        15.8647309899       13.8698752115       16.0213971150
  C        16.1359745094       12.5521524404       16.2902580491
  N        15.8615165633       19.7339694535       17.5793672666
  C        16.1308038480       21.0516773863       17.3082733109
  N        15.8560002805        8.9157404272        6.7600278132
  C        16.1248125012       10.2328409690        6.4863410514
  N         6.5994728484       19.7340229347        5.2041079577
  C         6.3288408735       21.0516296215        5.4739601685
  N         6.5981230588        8.9142478998       16.0234902349
  C         6.3272916981       10.2317435565       16.2932256253
  N         6.5990502580        3.0501296113       17.5800607163
  C         6.3288595171        1.7326023056       17.3097644403
  N         6.5985315878       13.8706095857        6.7601079514
  C         6.3280213808       12.5531095566        6.4898740388
  N         5.0435368310       16.0240614928        3.0505562540
  C         5.3134138110       16.2940910781        1.7327989211
  N         5.0428350011        5.2040245021       13.8712556881
  C         5.3124806515        5.4740583654       12.5534404763
  N        17.4169973606       16.0224338212       19.7341491713
  C        17.1460980221       16.2919683503       21.0517548543
  N        17.4210433223        5.2125818417        8.9137698829
  C        17.1476475337        5.4779123565       10.2316870338
  N         5.0427974878        6.7599793187       19.7339699001
  C         5.3127321905        6.4894881037       21.0515276564
  N         5.0425274433       17.5801453500        8.9139760470
  C         5.3119205173       17.3092636689       10.2315959658
  N        17.4159487939        6.7640971600        3.0522494471
  C        17.1464382625        6.4933409528        1.7344541516
  N        17.4187563824       17.5789930416       13.8698389408
  C        17.1501795774       17.3073531974       12.5522336440
  N         5.0432079272        3.0506692035        6.7600311574
  C         5.3129162286        1.7329672844        6.4895369785
  N         5.0421511394       13.8709046811       17.5798048121
  C         5.3116608426       12.5530787904       17.3091590447
  N        17.4175750129       19.7351850515        6.7619600916
  C        17.1470172722       21.0528931220        6.4921996462
  N        17.4205612473        8.9134814152       17.5777881146
  C        17.1511373031       10.2309500360       17.3065015715
  N         5.0423033780       19.7336150952       16.0237744959
  C         5.3127533144       21.0513869040       16.2938831915
  N         5.0416767766        8.9142298125        5.2034883571
  C         5.3119803050       10.2319647486        5.4737810467
  N        17.4167193303        3.0510205342       16.0224920586
  C        17.1459438256        1.7332760466       16.2919512951
  N        17.4218796007       13.8702946838        5.2065769776
  C        17.1483179175       12.5528168590        5.4746647513
  N         2.8886585931       16.0238952151       17.5796452824
  C         1.5708235601       16.2933598052       17.3089808123
  N        13.7092572481       16.0267147168        6.7644577876
  C        12.3917266252       16.2957516346        6.4926930916
  N        19.5730173353       16.0264132319        5.2018591210
  C        20.8908080525       16.2964485117        5.4720038534
  N         8.7523312556       16.0232582757       16.0232056699
  C        10.0702438549       16.2931116956       16.2930725609
  N        19.5733326366        6.7586809482       17.5818747397
  C        20.8908686659        6.4882442853       17.3116646044
  N         8.7522676195        6.7603081902        6.7602633762
  C        10.0696899615        6.4895595832        6.4895398659
  N         2.8897192807        6.7587263217        5.2028301609
  C         1.5719912156        6.4874656532        5.4717874361
  N        13.7091288536        6.7644344417       16.0267398780
  C        12.3916069868        6.4926681911       16.2957599950
  N        15.8629264624        5.2041776397       19.7351988000
  C        16.1323921463        5.4752191482       21.0529221714
  N        15.8673017170       16.0189021956        8.9129451684
  C        16.1373401927       16.2889168724       10.2307710693
  N        15.8621315095       17.5794826248        3.0511508313
  C        16.1310904817       17.3082606897        1.7333149457
  N        15.8559007712        6.7520146713       13.8718957738
  C        16.1251506350        6.4827602662       12.5540092810
  N         6.5990932267        5.2044432794        3.0506687649
  C         6.3287259170        5.4741635367        1.7329076261
  N         6.5977321381       16.0238131924       13.8708061853
  C         6.3271728111       16.2933874060       12.5530377589
  N         6.5986305678       17.5797185912       19.7335408897
  C         6.3286026448       17.3095901450       21.0512304481
  N         6.5976249298        6.7597521835        8.9141081477
  C         6.3275075616        6.4897189789       10.2317504869
  N        19.5734476257       17.5818149450        6.7587239528
  C        20.8910038503       17.3116687453        6.4882361846
  N         8.7531111923       17.5793663620       17.5792944587
  C        10.0706808572       17.3088254836       17.3087777430
  N         2.8897377561        5.2028737062        6.7586692037
  C         1.5720054632        5.4718127165        6.4874336588
  N        13.7099306888        5.2065576565       17.5805963220
  C        12.3920162971        5.4758559652       17.3102786022
  N         2.8886274223       17.5796959284       16.0238284749
  C         1.5708061460       17.3090139989       16.2933220073
  N        13.7101071842       17.5805492223        5.2065998726
  C        12.3921594356       17.3102673808        5.4758826374
  N        19.5728986395        5.2017958369       16.0264629657
  C        20.8906693166        5.4720081273       16.2964434112
  N         8.7513112923        5.2041816641        5.2041240068
  C        10.0691101482        5.4738945866        5.4738711221
  N         6.5986004092       19.7336362597       17.5796279914
  C         6.3285363274       21.0513121531       17.3095075929
  N         6.5976372335        8.9141686510        6.7597016204
  C         6.3275428902       10.2318134916        6.4896666327
  N         6.5990936741        3.0507724236        5.2043215009
  C         6.3287527503        1.7329865822        5.4740535855
  N         6.5977131368       13.8708610595       16.0237563947
  C         6.3271298412       12.5531052776       16.2933240385
  N        15.8619560247        3.0510587116       17.5795440738
  C        16.1309412293        1.7332402108       17.3083187559
  N        15.8560130567       13.8718534823        6.7520887925
  C        16.1252298864       12.5539424496        6.4828222270
  N        15.8630775033       19.7351199862        5.2042653770
  C        16.1324868246       21.0528496584        5.4753117152
  N        15.8671819354        8.9129000865       16.0189563478
  C        16.1372728021       10.2306995938       16.2889479339
  N        17.4174624520        6.7618782924       19.7352562877
  C        17.1469364850        6.4921043850       21.0529431750
  N        17.4206629222       17.5777039895        8.9135440502
  C        17.1511960752       17.3064561740       10.2310335187
  N         5.0431847892        6.7601366070        3.0506122312
  C         5.3128812498        6.4896349989        1.7328978668
  N         5.0421654780       17.5798559779       13.8708201731
  C         5.3117003080       17.3092239912       12.5530011372
  N        17.4168513003       16.0224208013        3.0510884955
  C        17.1460748658       16.2918836144        1.7333365995
  N        17.4217764838        5.2064755706       13.8703634437
  C        17.1482408773        5.4745905175       12.5528912651
  N         5.0423412632       16.0238698925       19.7335506587
  C         5.3128182569       16.2939654937       21.0513181678
  N         5.0416669416        5.2035401933        8.9141562828
  C         5.3119449292        5.4738382717       10.2318878466
  N        17.4169561959       19.7340883159       16.0225269922
  C        17.1460191886       21.0516963135       16.2920346710
  N        17.4210535347        8.9137076037        5.2126335890
  C        17.1476795761       10.2316126927        5.4779719796
  N         5.0433902193        3.0506351006       16.0240014301
  C         5.3132867410        1.7328704180       16.2940185453
  N         5.0429330074       13.8713359156        5.2039361635
  C         5.3125650802       12.5535119050        5.4739933155
  N        17.4159802359        3.0522038786        6.7642014595
  C        17.1464692636        1.7343897988        6.4934327547
  N        17.4187403825       13.8697535600       17.5790371435
  C        17.1501645507       12.5521554065       17.3073939557
  N         5.0429333319       19.7340550965        6.7599001108
  C         5.3128247389       21.0515811545        6.4894023933
  N         5.0424192247        8.9140453909       17.5800716421
  C         5.3118320961       10.2316760148       17.3091934579
  N        19.5729086672        6.7586287321        5.2027293434
  C        20.8905985424        6.4872960000        5.4716339582
  N         8.7525255323        6.7606740022       16.0244962561
  C        10.0701903607        6.4908257852       16.2945724928
  N         2.8898103265        6.7593686834       17.5801010506
  C         1.5721997335        6.4886413483       17.3107098499
  N        13.7084297680        6.7587638827        6.7588064502
  C        12.3907815969        6.4888215680        6.4888433487
  N         2.8900469452       16.0249906583        5.2027443435
  C         1.5723383746       16.2955866160        5.4724142605
  N        13.7096753045       16.0223533646       16.0224100174
  C        12.3919196547       16.2925939495       16.2926037140
  N        19.5717745160       16.0237181469       17.5799722666
  C        20.8893583926       16.2933741405       17.3091155295
  N         8.7526455163       16.0245246380        6.7606519892
  C        10.0703088831       16.2946054195        6.4908111239
  N         6.5992133477       17.5801248542        3.0500279954
  C         6.3289934442       17.3098363725        1.7325194885
  N         6.5984391876        6.7601708839       13.8705679100
  C         6.3279427830        6.4899271542       12.5530364715
  N         6.5993337521        5.2042084503       19.7339410937
  C         6.3287503745        5.4740556364       21.0515425976
  N         6.5982274110       16.0235470326        8.9141978545
  C         6.3273775371       16.2932875560       10.2316780352
  N        15.8615487630       17.5792862973       19.7340600489
  C        16.1308883890       17.3082093128       21.0517505914
  N        15.8559906012        6.7599693813        8.9157931454
  C        16.1247755719        6.4862859400       10.2328998241
  N        15.8626372436        5.2057142260        3.0523884084
  C        16.1323225461        5.4761443265        1.7345923838
  N        15.8647495681       16.0213436074       13.8699289515
  C        16.1359983773       16.2902223465       12.5522223642
 Zn        14.5692698437       14.7278952634       14.7279456554
 Br        13.2592456543       13.4114532865       13.4114843331
 Zn        14.5688448259        3.9096202221        3.9097212705
 Br        13.2571833921        2.5940642487        2.5941559627
 Zn         3.7489100868       14.7298797857        3.9090708700
 Br         2.4352737971       13.4154836429        2.5943711400
 Zn         3.7487699862        3.9091589783       14.7297945098
 Br         2.4351374710        2.5944664644       13.4153875055
 Zn         7.8922399727        8.0540364544       14.7291597869
 Br         9.2109997027        9.3677615894       13.4187006107
 Zn         7.8928008818       18.8739876253        3.9089197808
 Br         9.2078114772       20.1888922399        2.5960282423
 Zn        18.7116550374        8.0550670103        3.9129158420
 Br        20.0248098068        9.3715055995        2.5994991762
 Zn        18.7116048241       18.8738148524       14.7287518902
 Br        20.0264257523       20.1883111847       13.4153281589
 Zn         7.8923127736       14.7292004958        8.0540040628
 Br         9.2110560019       13.4187314634        9.3677326547
 Zn         7.8926710768        3.9089798215       18.8739344211
 Br         9.2076305406        2.5960563982       20.1888505292
 Zn        18.7116285870       14.7286564271       18.8738332309
 Br        20.0264429576       13.4152264837       20.1883305987
 Zn        18.7116783478        3.9128928463        8.0551266334
 Br        20.0248172185        2.5994740581        9.3715829996
 Zn        14.5628409760        8.0549273716        8.0549679473
 Br        13.2102679155        9.3498488625        9.3498769666
 Zn        14.5672872217       18.8730189301       18.8731005069
 Br        13.2523885334       20.1869519597       20.1870555077
 Zn         3.7479633009        8.0537009312       18.8738868492
 Br         2.4332746961        9.3679588640       20.1877238433
 Zn         3.7480965409       18.8739515847        8.0536411046
 Br         2.4334040409       20.1878053113        9.3678710888
 Zn        14.5687909038       14.7280676593        8.0535944623
 Br        13.2689008669       13.4016708948        9.3703593726
 Zn        14.5682740582        3.9105361263       18.8737996434
 Br        13.2533910896        2.5956832823       20.1868643358
 Zn         3.7474173364       14.7295058898       18.8736017364
 Br         2.4333558943       13.4153243189       20.1880929209
 Zn         3.7479094844        3.9088484699        8.0534711554
 Br         2.4334538849        2.5943800777        9.3673289912
 Zn         7.8915165281        8.0540995448        8.0540631007
 Br         9.1955540356        9.3733038659        9.3732747290
 Zn         7.8927233455       18.8735457132       18.8734590481
 Br         9.2070886763       20.1878007148       20.1877006951
 Zn        18.7125634755        8.0540577140       18.8743816189
 Br        20.0257450724        9.3691468798       20.1890297662
 Zn        18.7126574189       18.8743206058        8.0541147855
 Br        20.0258528308       20.1889485849        9.3692223417
 Zn        14.5686930851        8.0535578833       14.7281011547
 Br        13.2688346862        9.3703374543       13.4016910801
 Zn        14.5684601912       18.8737527255        3.9105904105
 Br        13.2535909786       20.1868149974        2.5957216242
 Zn         3.7478834674        8.0535390686        3.9088189558
 Br         2.4334518538        9.3674271288        2.5943392118
 Zn         3.7473886089       18.8736312865       14.7294085395
 Br         2.4333491117       20.1881282610       13.4152136869
 Zn         7.8915441853       14.7289609315       14.7289135264
 Br         9.2065479358       13.4150255560       13.4149897552
 Zn         7.8921675785        3.9094803174        3.9093744955
 Br         9.2078887833        2.5959116098        2.5958099106
 Zn        18.7127788917       14.7294095907        3.9097028699
 Br        20.0284148193       13.4162852710        2.5957460990
 Zn        18.7126827169        3.9096185838       14.7294940439
 Br        20.0282964734        2.5956299893       13.4163793082
 Zn         5.8252766477        5.9855854018       16.8059555102
 Zn        16.6443032404       16.8049307957       16.8050575601
 Zn        16.6424674783        5.9882941909        5.9883817034
 Zn         5.8254657620       16.8060626011        5.9854685567
 Zn         5.8246745267        5.9859923488        5.9858819400
 Zn        16.6458433037       16.8062921328        5.9857712690
 Zn         5.8242024940       16.8056282649       16.8055045630
 Zn        16.6456542421        5.9856378978       16.8064119113
  N         3.6368241999        5.9814701734       16.8022339012
  N        14.4552047827        5.9810773483        5.9811449498
  N        18.8251589270       16.8022204307       16.8022876182
  N         8.0063641535       16.8023076561        5.9819139834
  N        18.8261919421        5.9815578163        5.9816412920
  N         8.0062353244        5.9819746235       16.8022439552
  N         3.6369719533       16.8023223223        5.9813497849
  N        14.4565750942       16.8004079984       16.8004950554
  N        16.6392859119        3.7991779687        5.9850066746
  N        16.6410169010       14.6167571175       16.8010137520
  N        16.6398061805       18.9873765013       16.8014276121
  N        16.6399896666        8.1681011890        5.9883784639
  N         5.8214268534       18.9874011844        5.9823040258
  N         5.8207981057        8.1674799902       16.8021667934
  N         5.8213435391        3.7973538738       16.8021642355
  N         5.8210089186       14.6179494666        5.9820698003
  N         5.8215150896       16.8022275042        3.7972744063
  N         5.8208777048        5.9821267120       14.6178741690
  N        16.6398134512       16.8013342982       18.9874416021
  N        16.6399862487        5.9883353904        8.1681740936
  N         5.8212982144        5.9823587962       18.9873270346
  N         5.8209165285       16.8022324820        8.1674053613
  N        16.6393061298        5.9849340704        3.7992395950
  N        16.6410158942       16.8009538456       14.6168420636
  N         5.8213483102        3.7975804784        5.9824575098
  N         5.8203025739       14.6177064331       16.8021219201
  N        16.6406505424       18.9885449200        5.9827801081
  N        16.6436532909        8.1666363529       16.7989958708
  N         5.8204189225       18.9871147755       16.8017803695
  N         5.8197105845        8.1676877802        5.9816430821
  N        16.6399843307        3.7978740042       16.8016331388
  N        16.6402533434       14.6180093177        5.9800052437
  N         3.6354886219       16.8022001720       16.8021233192
  N        14.4566119141       16.8038510897        5.9861167534
  N        18.8267331089       16.8041278086        5.9805063264
  N         8.0061987677       16.8015102395       16.8014342978
  N        18.8265940790        5.9804161253       16.8042070712
  N         8.0052012260        5.9824557920        5.9823880912
  N         3.6366163034        5.9815147156        5.9814452447
  N        14.4564762860        5.9860661800       16.8039127865
  N        16.6405098303        5.9827105634       18.9886126820
  N        16.6437840569       16.7989217060        8.1667136403
  N        16.6401477118       16.8015614146        3.7979482642
  N        16.6401278730        5.9799177988       14.6180787087
  N         5.8213624357        5.9825594720        3.7975062687
  N         5.8202992634       16.8021801132       14.6176286170
  N         5.8204269367       16.8018728230       18.9870381421
  N         5.8197124966        5.9816935871        8.1676138885
  C        11.2308517282       15.7432098456       15.7431955005
  H        11.2303113658       14.9677056016       14.9676977461
  C        11.2295815908        4.9238348591        4.9238411455
  H        11.2289150674        4.1483574932        4.1483662174
  C         0.4114619851       15.7467392711        4.9221860339
  H         0.4111964134       14.9715934708        4.1462889728
  C         0.4113345990        4.9222351734       15.7466971618
  H         0.4110659332        4.1463279476       14.9715425406
  C        11.2308186758        7.0417999235       15.7459015061
  H        11.2301039217        7.8178670176       14.9709591327
  C        11.2317137787       17.8589824742        4.9248468532
  H        11.2319536672       18.6338598093        4.1486761083
  C         0.4113069237        7.0367933873        4.9217599506
  H         0.4113202421        7.8125177525        4.1464768929
  C         0.4101405741       17.8585722507       15.7435549650
  H         0.4100484070       18.6341543909       14.9681382626
  C        11.2309234500       15.7459126153        7.0418068781
  H        11.2301790493       14.9709682954        7.8178714165
  C        11.2315385089        4.9248428109       17.8589685386
  H        11.2317520226        4.1486683162       18.6338540484
  C         0.4101912430       15.7435555830       17.8585631695
  H         0.4101417302       14.9681352324       18.6341424905
  C         0.4113509768        4.9217604912        7.0367862843
  H         0.4114017657        4.1464871885        7.8124960677
  C        11.2304383680        7.0388635561        7.0388633010
  H        11.2320215369        7.8143912704        7.8143885901
  C        11.2315540024       17.8581997453       17.8581809010
  H        11.2319333555       18.6337039522       18.6336881852
  C         0.4116634655        7.0383120853       17.8606347839
  H         0.4119297537        7.8142455997       18.6357092243
  C         0.4117934024       17.8606781733        7.0382697832
  H         0.4120667253       18.6357513123        7.8142071614
  C        15.5882951148       11.3914129537       15.7385420027
  H        14.8143796905       11.3914107611       14.9614302415
  C        15.5834792388        0.5738783610        4.9254553830
  H        14.8090464311        0.5742979123        4.1489388255
  C         4.7627312448       11.3928988545        4.9241388536
  H         3.9874112634       11.3931887212        4.1484064494
  C         4.7633908248        0.5722516020       15.7442426087
  H         3.9879280642        0.5725266876       14.9686653997
  C        15.5695146315       11.3941719008        7.0282842310
  H        14.7868705074       11.3960631635        7.7963802999
  C        15.5814007071        0.5725127081       17.8580742697
  H        14.8064613313        0.5725686847       18.6341905300
  C         4.7620826244       11.3924120106       17.8588707289
  H         3.9868711120       11.3923036318       18.6346954933
  C         4.7630048541        0.5723272602        7.0389203809
  H         3.9873773586        0.5723242403        7.8142955208
  C         6.8766682424       11.3925506263       15.7433839940
  H         7.6522301397       11.3925929305       14.9679587545
  C         6.8786350506        0.5724040485        4.9245052695
  H         7.6546732198        0.5724077066        4.1494657066
  C        17.7012437874       11.3913813121        4.9300606123
  H        18.4819896261       11.3898201840        4.1598850711
  C        17.6951152025        0.5725238171       15.7418864355
  H        18.4704220989        0.5724609864       14.9661920895
  C         6.8772701204       11.3923140918        7.0396008289
  H         7.6524918881       11.3918098800        7.8154070855
  C         6.8784073817        0.5717977342       17.8592949473
  H         7.6539271983        0.5715421847       18.6347680716
  C        17.6996978447       11.3915754232       17.8572838463
  H        18.4739586352       11.3915026383       18.6340054512
  C        17.6955805254        0.5735177810        7.0432780352
  H        18.4701110199        0.5731687596        7.8197653443
  C        15.5883273619       15.7384949991       11.3914607357
  H        14.8144345538       14.9613882110       11.3914493534
  C        15.5834213057        4.9253678462        0.5739692361
  H        14.8089660328        4.1488375121        0.5744091608
  C         4.7634898597       15.7443233031        0.5721907992
  H         3.9880226149       14.9687448155        0.5724891995
  C         4.7626634103        4.9242013547       11.3928150415
  H         3.9873442874        4.1484860384       11.3930876506
  C         6.8767297268       15.7434497441       11.3925015373
  H         7.6522948683       14.9680184680       11.3925552662
  C         6.8785839085        4.9246103957        0.5723077916
  H         7.6546126104        4.1495872675        0.5722936263
  C        17.6952256880       15.7418110420        0.5725744927
  H        18.4705185788       14.9661169121        0.5724894991
  C        17.7011750864        4.9300011537       11.3914598767
  H        18.4819263632        4.1598031922       11.3899105842
  C        15.5694681814        7.0282145710       11.3942193658
  H        14.7868151634        7.7963139386       11.3961021127
  C        15.5815192793       17.8580266329        0.5726066964
  H        14.8065918875       18.6341400835        0.5726829760
  C         4.7629343425        7.0390165209        0.5722679037
  H         3.9872972660        7.8143977382        0.5722861009
  C         4.7621529045       17.8589384129       11.3923255513
  H         3.9869446684       18.6347678673       11.3922000151
  C         6.8772196953        7.0396555368       11.3922658830
  H         7.6524467524        7.8154623235       11.3917713533
  C         6.8785087835       17.8593666698        0.5716945995
  H         7.6540372289       18.6348386156        0.5714205862
  C        17.6955194555        7.0431705510        0.5735651945
  H        18.4700499530        7.8196502696        0.5731942795
  C        17.6997491396       17.8572524652       11.3916601892
  H        18.4740127574       18.6339526329       11.3916064382
 Kr        16.8770118603       10.4100372563       10.4101214819
