     409
 i =     176, E =    -5136.7149842659
  N         2.8959114406        5.1998153823       16.0205190524
  C         1.5779444367        5.4688442577       16.2909331445
  N        13.7076294283        5.1933548811        5.1934180756
  C        12.3902856882        5.4644352569        5.4644671904
  N        19.5796577974       17.5763546952       16.0200292849
  C        20.8974118774       17.3062961728       16.2905488386
  N         8.7590091139       17.5754112398        5.2027817105
  C        10.0765357338       17.3049459570        5.4740851494
  N        19.5734847687        5.1958102517        6.7518987102
  C        20.8911468306        5.4667609446        6.4824826588
  N         8.7588496194        5.2028308841       17.5753460923
  C        10.0763729699        5.4741216658       17.3049052587
  N         2.8950422193       17.5759045119        6.7563259578
  C         1.5774181387       17.3063411257        6.4847970191
  N        13.7193151374       17.5738097800       17.5738979196
  C        12.4012954742       17.3040909517       17.3041337995
  N        15.8637107676        3.0428177720        5.1975995758
  C        16.1333898985        1.7254019978        5.4695849338
  N        15.8754752985       13.8654360754       16.0160361917
  C        16.1464202860       12.5477213250       16.2841505893
  N        15.8701084558       19.7295665759       17.5747487026
  C        16.1382003614       21.0474035185       17.3030037244
  N        15.8592996450        8.9064567315        6.7550946212
  C        16.1315553682       10.2237949190        6.4854804141
  N         6.6038633690       19.7293794377        5.2029664498
  C         6.3321329537       21.0468919545        5.4720051001
  N         6.6021962634        8.9118603131       16.0179916845
  C         6.3323778931       10.2293738058       16.2886165690
  N         6.6051217520        3.0483857336       17.5769325824
  C         6.3350728532        1.7305604186       17.3074966903
  N         6.6034884686       13.8647545474        6.7577398318
  C         6.3320840596       12.5474599061        6.4870842976
  N         5.0500867335       16.0207479564        3.0476668616
  C         5.3198386341       16.2916613486        1.7300898911
  N         5.0483867284        5.2010530840       13.8667171820
  C         5.3168044439        5.4710429491       12.5487077191
  N        17.4243618933       16.0174311883       19.7299421936
  C        17.1530449371       16.2863420203       21.0475892098
  N        17.4208865927        5.2047251631        8.9048920301
  C        17.1515729459        5.4741232366       10.2227480239
  N         5.0478378140        6.7589039976       19.7287033138
  C         5.3164049359        6.4877981604       21.0464568040
  N         5.0474356620       17.5751439872        8.9114729524
  C         5.3174644338       17.3050713205       10.2291644700
  N        17.4169026282        6.7565687910        3.0442392081
  C        17.1472227561        6.4870538133        1.7263643038
  N        17.4273881444       17.5753137950       13.8647188084
  C        17.1592829652       17.3026042297       12.5471888276
  N         5.0431441949        3.0455904644        6.7560289819
  C         5.3140609553        1.7279303474        6.4864186952
  N         5.0502243583       13.8682894392       17.5775717948
  C         5.3187534917       12.5505587788       17.3062565160
  N        17.4205618611       19.7275167407        6.7574021559
  C        17.1490776322       21.0449658777        6.4875320681
  N        17.4278237501        8.9083760101       17.5713571551
  C        17.1595565763       10.2261378233       17.3004071214
  N         5.0505619597       19.7311593059       16.0217174444
  C         5.3200432757       21.0488892023       16.2920747019
  N         5.0434671694        8.9099272591        5.1988795409
  C         5.3144020303       10.2273483114        5.4698233090
  N        17.4211157015        3.0464246580       16.0140510035
  C        17.1513860526        1.7287799878       16.2847079988
  N        17.4271563426       13.8609783364        5.2028172380
  C        17.1546656755       12.5437123824        5.4726625080
  N         2.8970796089       16.0216181950       17.5775629799
  C         1.5792240783       16.2911993742       17.3068843168
  N        13.7152775703       16.0187269949        6.7629128448
  C        12.3975724961       16.2892800440        6.4923665175
  N        19.5787914664       16.0195182487        5.1973894891
  C        20.8963696694       16.2906262465        5.4675527349
  N         8.7603176117       16.0204037162       16.0203396317
  C        10.0784159467       16.2899293021       16.2899014264
  N        19.5778075258        6.7533210168       17.5762460072
  C        20.8956190642        6.4832602472       17.3064295563
  N         8.7535184927        6.7544180239        6.7543603954
  C        10.0706357452        6.4827087685        6.4826862362
  N         2.8903802220        6.7553480720        5.1993300085
  C         1.5726555523        6.4842350688        5.4685344412
  N        13.7151596775        6.7628682146       16.0187644146
  C        12.3974522354        6.4923429551       16.2893045530
  N        15.8669462935        5.1992968119       19.7259868564
  C        16.1348907463        5.4701825218       21.0440054075
  N        15.8768957588       16.0108235649        8.9094728194
  C        16.1472201782       16.2814227310       10.2268908842
  N        15.8665248250       17.5710261525        3.0467444257
  C        16.1365920435       17.3010914728        1.7289591142
  N        15.8646339427        6.7520481056       13.8630935234
  C        16.1342094532        6.4836527245       12.5451620672
  N         6.5984167180        5.1994659574        3.0455061302
  C         6.3293793043        5.4705409462        1.7279548847
  N         6.6048264934       16.0207597127       13.8679406891
  C         6.3337149211       16.2899612437       12.5503825593
  N         6.6063145627       17.5779055066       19.7315808685
  C         6.3356891252       17.3079715724       21.0491583978
  N         6.5995830677        6.7546891267        8.9081672617
  C         6.3299934302        6.4856198220       10.2261005240
  N        19.5779381567       17.5761957748        6.7533789399
  C        20.8957592159       17.3064401270        6.4832734736
  N         8.7618162707       17.5767973251       17.5767129819
  C        10.0793705131       17.3057276934       17.3056920663
  N         2.8904132929        5.1993960733        6.7552701724
  C         1.5726782006        5.4685744703        6.4841911896
  N        13.7159296614        5.2040601193       17.5720039343
  C        12.3980514108        5.4750878894       17.3034262665
  N         2.8970426267       17.5776176036       16.0215423121
  C         1.5791988810       17.3069146609       16.2911608254
  N        13.7161057029       17.5719524236        5.2041063798
  C        12.3982097149       17.3034075786        5.4750998963
  N        19.5786671178        5.1973198619       16.0195602492
  C        20.8962343477        5.4675501093       16.2906275063
  N         8.7508397744        5.1982417654        5.1981687258
  C        10.0688643429        5.4670748922        5.4670454445
  N         6.6062766418       19.7316908249       17.5777923242
  C         6.3356026326       21.0492626040       17.3078789900
  N         6.5995995846        8.9082380776        6.7546246415
  C         6.3300285897       10.2261732603        6.4855578675
  N         6.5984200896        3.0456168471        5.1993446344
  C         6.3294144474        1.7280651498        5.4704321748
  N         6.6048138838       13.8680094033       16.0206896465
  C         6.3336865838       12.5504485493       16.2898885762
  N        15.8663332884        3.0466511261       17.5711058945
  C        16.1364474896        1.7288813457       17.3011584165
  N        15.8647507968       13.8630279735        6.7521161246
  C        16.1342845310       12.5450806865        6.4837298149
  N        15.8671077415       19.7259031122        5.1993982135
  C        16.1349980329       21.0439367343        5.4702775359
  N        15.8767702263        8.9093941711       16.0108879231
  C        16.1471336007       10.2267984826       16.2814962813
  N        17.4204505177        6.7572910917       19.7275694115
  C        17.1489744937        6.4874107321       21.0450147680
  N        17.4279406334       17.5712747981        8.9084758276
  C        17.1596600298       17.3003466729       10.2262411396
  N         5.0431275273        6.7561397399        3.0455049878
  C         5.3140137094        6.4865278438        1.7278360425
  N         5.0502241024       17.5776459744       13.8681939228
  C         5.3187864747       17.3063261651       12.5504715953
  N        17.4212517710       16.0139664680        3.0464972051
  C        17.1515283342       16.2846124541        1.7288429552
  N        17.4270474129        5.2027242480       13.8610593114
  C        17.1545693523        5.4725975286       12.5438028071
  N         5.0506195572       16.0218204429       19.7310773500
  C         5.3201409301       16.2921632086       21.0487981648
  N         5.0434585552        5.1989477027        8.9098270093
  C         5.3143634993        5.4698862568       10.2272562289
  N        17.4243290908       19.7298764524       16.0175233183
  C        17.1529590473       21.0475048996       16.2864382754
  N        17.4208858065        8.9048026399        5.2047864667
  C        17.1516146065       10.2226793069        5.4741757748
  N         5.0499090056        3.0477554696       16.0206693246
  C         5.3196773758        1.7301792682       16.2915819642
  N         5.0485222806       13.8668116422        5.2009791259
  C         5.3169036421       12.5488005161        5.4709791333
  N        17.4169115253        3.0441910883        6.7566591535
  C        17.1472680176        1.7262939276        6.4871617186
  N        17.4273813743       13.8646167204       17.5753765178
  C        17.1592370277       12.5471097709       17.3026562640
  N         5.0479709543       19.7287958929        6.7588212305
  C         5.3165140646       21.0465480470        6.4876985630
  N         5.0473172496        8.9115600334       17.5750558625
  C         5.3173755346       10.2292520566       17.3049975336
  N        19.5734532568        6.7518376730        5.1958539520
  C        20.8911220462        6.4824550093        5.4667811751
  N         8.7577490797        6.7599799357       16.0198639428
  C        10.0756696475        6.4907138293       16.2899572496
  N         2.8948988351        6.7564322577       17.5757994305
  C         1.5772911108        6.4848650865       17.3062592649
  N        13.7100459570        6.7490625875        6.7491182685
  C        12.3919185187        6.4800875221        6.4801175099
  N         2.8960580343       16.0206286894        5.1997060973
  C         1.5780768033       16.2910024721        5.4687604983
  N        13.7183469023       16.0176227391       16.0176858854
  C        12.4005459086       16.2883445579       16.2883774430
  N        19.5796922687       16.0199601537       17.5764046103
  C        20.8974313172       16.2905148805       17.3063227011
  N         8.7578528916       16.0199266923        6.7599302300
  C        10.0757955146       16.2899861750        6.4906887768
  N         6.6052923376       17.5770241176        3.0482741464
  C         6.3352268071       17.3075800093        1.7304557439
  N         6.6033781050        6.7577960073       13.8646834598
  C         6.3319988324        6.4871392803       12.5473858356
  N         6.6037289909        5.2030658123       19.7292660897
  C         6.3320321282        5.4721048161       21.0467893085
  N         6.6022970414       16.0180600971        8.9117923138
  C         6.3324519231       16.2886855520       10.2292995067
  N        15.8701508136       17.5746458656       19.7296609699
  C        16.1382726911       17.3029277780       21.0475094959
  N        15.8592797961        6.7550428903        8.9065258942
  C        16.1315306112        6.4854092814       10.2238482451
  N        15.8636985095        5.1975008295        3.0428989007
  C        16.1333570246        5.4694944805        1.7254888289
  N        15.8755002689       16.0159774051       13.8655115320
  C        16.1464527204       16.2840796388       12.5477909218
 Zn        14.5818310800       14.7234958863       14.7235407442
 Br        13.2744925391       13.4052339011       13.4052639674
 Zn        14.5696476082        3.9012118905        3.9012838763
 Br        13.2601656225        2.5845189719        2.5846089028
 Zn         3.7568184002       14.7262384764        3.9057016703
 Br         2.4420949606       13.4128496787        2.5907948156
 Zn         3.7565988437        3.9057857893       14.7261581301
 Br         2.4419105666        2.5908895888       13.4127384301
 Zn         7.8959510071        8.0524994183       14.7240104190
 Br         9.2162829233        9.3653588875       13.4141071687
 Zn         7.8973660591       18.8708389896        3.9086316956
 Br         9.2133288072       20.1850380335        2.5958263016
 Zn        18.7120652502        8.0486461655        3.9054875192
 Br        20.0254464772        9.3650001092        2.5924351672
 Zn        18.7181594776       18.8707573036       14.7247073441
 Br        20.0340501237       20.1839774533       13.4108088417
 Zn         7.8960234465       14.7240631955        8.0524582803
 Br         9.2163438763       13.4141497799        9.3653249164
 Zn         7.8972343025        3.9086998559       18.8707636055
 Br         9.2131442427        2.5958697351       20.1849822318
 Zn        18.7181862184       14.7246181488       18.8707803488
 Br        20.0340654201       13.4107045844       20.1839994044
 Zn        18.7120886906        3.9054636949        8.0487271219
 Br        20.0254564153        2.5924024136        9.3650863911
 Zn        14.5626371709        8.0456768160        8.0457343903
 Br        13.1955369105        9.3327941825        9.3328343219
 Zn        14.5788233154       18.8692748366       18.8693766382
 Br        13.2620737305       20.1824621477       20.1825782518
 Zn         3.7533027123        8.0520453126       18.8694463430
 Br         2.4383616471        9.3663974974       20.1829141266
 Zn         3.7534729629       18.8695334984        8.0519766081
 Br         2.4385043670       20.1830068379        9.3663031725
 Zn        14.5783952070       14.7214523529        8.0525732683
 Br        13.2763738547       13.3951538581        9.3680179534
 Zn        14.5730742876        3.9065234735       18.8653730514
 Br        13.2568466973        2.5920255627       20.1774608733
 Zn         3.7576299650       14.7272159882       18.8718830336
 Br         2.4424154377       13.4134067192       20.1858454836
 Zn         3.7486806158        3.9052289924        8.0504403510
 Br         2.4342199287        2.5910341883        9.3645202400
 Zn         7.8931540617        8.0490467719        8.0489979527
 Br         9.1939749847        9.3697559543        9.3697190282
 Zn         7.8991731385       18.8714697310       18.8713568305
 Br         9.2153354275       20.1849452809       20.1848145897
 Zn        18.7163386813        8.0489698841       18.8698131924
 Br        20.0307132922        9.3626013410       20.1847689514
 Zn        18.7164417882       18.8697514437        8.0490623146
 Br        20.0308311298       20.1846766631        9.3627062116
 Zn        14.5782681432        8.0525201835       14.7214961081
 Br        13.2762889685        9.3679845326       13.3951739419
 Zn        14.5733207640       18.8653133182        3.9065708558
 Br        13.2570798184       20.1773963580        2.5920765288
 Zn         3.7486468891        8.0505322823        3.9051822806
 Br         2.4342204823        9.3646384411        2.5909810970
 Zn         3.7575580984       18.8719197544       14.7271193095
 Br         2.4423979428       20.1858931024       13.4132717012
 Zn         7.8975717085       14.7262707143       14.7262167264
 Br         9.2142766090       13.4129845309       13.4129383400
 Zn         7.8913850616        3.9042060729        3.9041101714
 Br         9.2060864189        2.5901379537        2.5900370924
 Zn        18.7170246435       14.7222221214        3.9058894500
 Br        20.0331353557       13.4091874771        2.5921086288
 Zn        18.7169184691        3.9058109893       14.7222952025
 Br        20.0330058270        2.5919871246       13.4092793720
 Zn         5.8312414443        5.9822853410       16.7971084117
 Zn        16.6534220041       16.7963596344       16.7965472480
 Zn        16.6428994547        5.9714239274        5.9715452699
 Zn         5.8313774939       16.7973066544        5.9821227814
 Zn         5.8249909882        5.9767978239        5.9765960092
 Zn        16.6516437723       16.7909033985        5.9779656998
 Zn         5.8330251951       16.8015792704       16.8013892797
 Zn        16.6515092841        5.9777740430       16.7910252498
  N         3.6422710721        5.9788405025       16.7978866317
  N        14.4556167529        5.9708684518        5.9709431320
  N        18.8332774922       16.7980322253       16.7981106818
  N         8.0120007421       16.7977277043        5.9808844524
  N        18.8267570946        5.9735010824        5.9735652395
  N         8.0118659206        5.9809442062       16.7976478018
  N         3.6424125034       16.7980092866        5.9787164140
  N        14.4655581436       16.7955686635       16.7956673884
  N        16.6404498344        3.7900592497        5.9763178010
  N        16.6505520998       14.6118196883       16.7969233242
  N        16.6481505512       18.9828561392       16.7968808067
  N        16.6393743103        8.1586908861        5.9796691056
  N         5.8267893287       18.9823009915        5.9814922962
  N         5.8248602760        8.1650498338       16.7964547085
  N         5.8276449215        3.7949543213       16.7983607756
  N         5.8268349098       14.6125915767        5.9794609125
  N         5.8278250641       16.7984481006        3.7948528802
  N         5.8266969608        5.9795324032       14.6125017694
  N        16.6481698098       16.7967739674       18.9829428203
  N        16.6393724772        5.9796135155        8.1587710307
  N         5.8266404191        5.9815789307       18.9821943596
  N         5.8249852644       16.7965383817        8.1649671143
  N        16.6404524807        5.9762258470        3.7901291611
  N        16.6505643267       16.7968516419       14.6119129841
  N         5.8204121367        3.7923307988        5.9772720629
  N         5.8282826562       14.6150390814       16.7997442627
  N        16.6449099960       18.9797395424        5.9780810814
  N        16.6515996723        8.1620916791       16.7914073873
  N         5.8288078089       18.9847218833       16.7996126561
  N         5.8212856959        8.1623479235        5.9763313014
  N        16.6437506302        3.7932694444       16.7925142252
  N        16.6467767227       14.6086625723        5.9773661598
  N         3.6438938928       16.7999481311       16.7998690507
  N        14.4625884686       16.7947132475        5.9831167417
  N        18.8319130904       16.7973531353        5.9754550362
  N         8.0146142107       16.7989717158       16.7988738348
  N        18.8317889761        5.9753582907       16.7974319672
  N         8.0055655260        5.9769574400        5.9768696562
  N         3.6372439728        5.9778603854        5.9777728737
  N        14.4624387981        5.9830578458       16.7947692054
  N        16.6447564678        5.9779802028       18.9798166560
  N        16.6517410538       16.7913217831        8.1621787097
  N        16.6439266439       16.7924341572        3.7933640872
  N        16.6466431851        5.9772736852       14.6087320107
  N         5.8204176353        5.9773935797        3.7922278370
  N         5.8282781145       16.7998168058       14.6149513156
  N         5.8288309333       16.7997318504       18.9846209722
  N         5.8212844346        5.9764009842        8.1622566544
  C        11.2388234643       15.7396697692       15.7396721480
  H        11.2373517287       14.9641347742       14.9641361188
  C        11.2284209946        4.9160401814        4.9160414179
  H        11.2263410539        4.1405739795        4.1405731247
  C         0.4176184695       15.7415064938        4.9183217519
  H         0.4181016249       14.9661234741        4.1426793981
  C         0.4174876758        4.9183431536       15.7414449976
  H         0.4179685368        4.1427230421       14.9660813718
  C        11.2361207459        7.0418897587       15.7408230098
  H        11.2347850060        7.8180952961       14.9660115670
  C        11.2379713070       17.8531808415        4.9244876838
  H        11.2389148487       18.6277308784        4.1479683432
  C         0.4119084790        7.0329784449        4.9179677199
  H         0.4119646486        7.8085064070        4.1425280813
  C         0.4183264239       17.8560715090       15.7412710918
  H         0.4182292734       18.6315802285       14.9657038368
  C        11.2362192330       15.7408444117        7.0418686449
  H        11.2348422424       14.9660156658        7.8180927792
  C        11.2377858739        4.9244811384       17.8531919939
  H        11.2386989508        4.1479805814       18.6277248556
  C         0.4183797902       15.7412726583       17.8560701175
  H         0.4183305149       14.9657077291       18.6315765580
  C         0.4119605685        4.9179805171        7.0329697172
  H         0.4120675619        4.1425404769        7.8085004435
  C        11.2322875866        7.0310265856        7.0310329852
  H        11.2355040262        7.8065245455        7.8065319942
  C        11.2410753088       17.8543688980       17.8543729382
  H        11.2421814593       18.6299151891       18.6299188790
  C         0.4161562631        7.0336433150       17.8559832154
  H         0.4156461224        7.8093803500       18.6312467552
  C         0.4162942485       17.8560063951        7.0335852570
  H         0.4157946988       18.6312954587        7.8093458334
  C        15.5993466456       11.3876793119       15.7306268741
  H        14.8265623229       11.3884125803       14.9523491794
  C        15.5852985367        0.5641094005        4.9195513929
  H        14.8111806981        0.5635156711        4.1426102569
  C         4.7660127900       11.3889111411        4.9206220789
  H         3.9907923263       11.3902932859        4.1448756856
  C         4.7701467681        0.5693417061       15.7421437973
  H         3.9947785962        0.5690391280       14.9664648683
  C        15.5799491885       11.3853440080        7.0310536174
  H        14.7985291636       11.3878688154        7.8005234075
  C        15.5879472317        0.5681484458       17.8520387874
  H        14.8130251528        0.5682167687       18.6281842871
  C         4.7686414114       11.3899401946       17.8556507961
  H         3.9937609997       11.3899814312       18.6318019703
  C         4.7656160624        0.5669806447        7.0368370858
  H         3.9903115002        0.5665448999        7.8125021244
  C         6.8823710309       11.3899118500       15.7391301566
  H         7.6577579566       11.3898871177       14.9634785681
  C         6.8804744357        0.5677326442        4.9214252690
  H         7.6561014696        0.5681814517        4.1460847881
  C        17.7053621422       11.3821556557        4.9262592885
  H        18.4841677386       11.3804161908        4.1539945143
  C        17.7012954418        0.5681092510       15.7353699521
  H        18.4764914740        0.5680499865       14.9594956958
  C         6.8805497663       11.3860257519        7.0362647089
  H         7.6557954334       11.3844928213        7.8119929125
  C         6.8849279429        0.5701340761       17.8575206908
  H         7.6605448403        0.5703768450       18.6329307776
  C        17.7078841517       11.3861911259       17.8525525620
  H        18.4813317577       11.3855153260       18.6301665695
  C        17.6966811263        0.5661430796        7.0381351046
  H        18.4711326029        0.5668950204        7.8147662985
  C        15.5994341096       15.7305838579       11.3877473145
  H        14.8266220814       14.9522772023       11.3884683450
  C        15.5852012826        4.9194373171        0.5642061960
  H        14.8111033938        4.1425250438        0.5636360167
  C         4.7702755150       15.7422162688        0.5692650231
  H         3.9949121371       14.9665422546        0.5689860521
  C         4.7659446847        4.9206945456       11.3888052437
  H         3.9907116042        4.1449528913       11.3901650253
  C         6.8824292651       15.7391883636       11.3898517450
  H         7.6578049988       14.9635438807       11.3898437287
  C         6.8803981705        4.9215425395        0.5676117203
  H         7.6560377481        4.1461943247        0.5680423508
  C        17.7013790875       15.7353003624        0.5681702077
  H        18.4765982518       14.9593915509        0.5680822377
  C        17.7053239230        4.9261665222       11.3822459097
  H        18.4840922394        4.1539284445       11.3805274807
  C        15.5798666123        7.0310141230       11.3854024396
  H        14.7984811860        7.8004508983       11.3879161713
  C        15.5880927022       17.8519451917        0.5682540974
  H        14.8131460098       18.6281280773        0.5683410224
  C         4.7655462662        7.0369317016        0.5669004626
  H         3.9902350610        7.8126063755        0.5664881541
  C         4.7686984106       17.8557339529       11.3898412852
  H         3.9938323610       18.6318856211       11.3898625099
  C         6.8804900107        7.0363162329       11.3859644520
  H         7.6557410514        7.8120443065       11.3844510373
  C         6.8850533048       17.8576119943        0.5700142490
  H         7.6606642655       18.6330217229        0.5702386311
  C        17.6966394649        7.0380403625        0.5661835480
  H        18.4710724275        7.8146374408        0.5669047828
  C        17.7079285479       17.8524664447       11.3862980604
  H        18.4814093569       18.6301083305       11.3856416615
 Kr        16.3335807729       10.9746384793       10.9747141157
