     409
 i =     176, E =    -5136.6809754946
  N         3.0508155249        5.2044257571       16.0123788371
  C         1.7351267827        5.4779209322       16.2856913767
  N        13.8633522035        5.2048283771        5.2048272072
  C        12.5489271825        5.4777902002        5.4777968875
  N        19.7287545535       17.5718247598       16.0123769019
  C        21.0452643944       17.2985809783       16.2852173456
  N         8.9125083192       17.5713522576        5.2048726555
  C        10.2269736034       17.2982414118        5.4777587427
  N        19.7289190018        5.2043362235        6.7637075473
  C        21.0453502014        5.4774236976        6.4907673694
  N         8.9125105556        5.2048774002       17.5713546821
  C        10.2269705253        5.4777547991       17.2982359597
  N         3.0508623438       17.5717639599        6.7635726225
  C         1.7351389126       17.2981813608        6.4903278567
  N        13.8635563968       17.5712932048       17.5712923677
  C        12.5490126942       17.2982810144       17.2982813935
  N        16.0123881155        3.0508155659        5.2044169784
  C        16.2857049108        1.7351310395        5.4779095950
  N        16.0123614917       13.8632917360       16.0123449619
  C        16.2855800667       12.5489719860       16.2855517380
  N        16.0123818727       19.7287482328       17.5718272193
  C        16.2852228002       21.0452526370       17.2985852775
  N        16.0123431709        8.9127349795        6.7636947144
  C        16.2855431443       10.2270148321        6.4904544864
  N         6.7636801759       19.7289124390        5.2043146573
  C         6.4907303284       21.0453608161        5.4773861002
  N         6.7636624324        8.9127419958       16.0123175486
  C         6.4904113630       10.2270180511       16.2854970209
  N         6.7635687912        3.0508526520       17.5717752352
  C         6.4903161028        1.7351539382       17.2981901454
  N         6.7636753749       13.8631694263        6.7636868462
  C         6.4904726541       12.5489008091        6.4904958432
  N         5.2044176355       16.0123850103        3.0508144358
  C         5.4779064076       16.2857035043        1.7351382839
  N         5.2048130450        5.2048356879       13.8633438647
  C         5.4777865774        5.4778027909       12.5489314907
  N        17.5718298617       16.0123799650       19.7287492081
  C        17.2985865039       16.2852244708       21.0452658171
  N        17.5713814788        5.2048941814        8.9125134704
  C        17.2982827835        5.4777889261       10.2269893675
  N         5.2043174444        6.7636783055       19.7289167730
  C         5.4773844346        6.4907279124       21.0453473263
  N         5.2048670384       17.5713479515        8.9125149165
  C         5.4777492303       17.2982382595       10.2269852643
  N        17.5717793222        6.7635746252        3.0508654675
  C        17.2981995902        6.4903159891        1.7351482888
  N        17.5712955082       17.5712841151       13.8635647318
  C        17.2982884930       17.2982648555       12.5490418483
  N         5.2043811687        3.0507472367        6.7636374403
  C         5.4778406274        1.7350956554        6.4902842203
  N         5.2048722462       13.8634604808       17.5713439180
  C         5.4777482298       12.5489692515       17.2982390838
  N        17.5718510219       19.7288103265        6.7636286675
  C        17.2986546992       21.0453047484        6.4907618510
  N        17.5713058817        8.9124109568       17.5712902412
  C        17.2982958579       10.2269306155       17.2982665644
  N         5.2043325885       19.7288495424       16.0123234322
  C         5.4774447603       21.0453220998       16.2852550967
  N         5.2047981092        8.9126226388        5.2048207771
  C         5.4777770411       10.2270313175        5.4778073650
  N        17.5717559592        3.0509205993       16.0124348701
  C        17.2981270130        1.7351966267       16.2856696562
  N        17.5713593037       13.8634544063        5.2048977819
  C        17.2982770578       12.5489847089        5.4777903296
  N         3.0509154668       16.0124341139       17.5717501434
  C         1.7351776895       16.2856628207       17.2981237995
  N        13.8632368491       16.0123258306        6.7636607267
  C        12.5489542067       16.2855061531        6.4904177508
  N        19.7288583482       16.0123160890        5.2043488351
  C        21.0453150230       16.2852423489        5.4774641922
  N         8.9126772108       16.0123442146       16.0123444278
  C        10.2269755721       16.2855678869       16.2855666260
  N        19.7288038475        6.7636322136       17.5718360270
  C        21.0452959346        6.4907768218       17.2986384580
  N         8.9128056771        6.7637077160        6.7637058942
  C        10.2270595168        6.4904803294        6.4904904682
  N         3.0507496374        6.7636469936        5.2044017523
  C         1.7350957538        6.4903119128        5.4778750464
  N        13.8632398618        6.7636629461       16.0123318836
  C        12.5489421177        6.4904138327       16.2854976160
  N        16.0123270057        5.2043382960       19.7288597302
  C        16.2852614883        5.4774486057       21.0453077551
  N        16.0123577503       16.0123343536        8.9126731374
  C        16.2855882560       16.2855554126       10.2269653074
  N        16.0124463447       17.5717438583        3.0509231213
  C        16.2856735419       17.2981280308        1.7351885228
  N        16.0123474530        6.7636756944       13.8632266216
  C        16.2855312820        6.4904473914       12.5489373201
  N         6.7636266852        5.2043899370        3.0507615198
  C         6.4902816188        5.4778410202        1.7350785139
  N         6.7636596422       16.0123220857       13.8632263079
  C         6.4904147035       16.2854960431       12.5489397374
  N         6.7636345638       17.5718594152       19.7288132959
  C         6.4907595687       17.2986506767       21.0453007537
  N         6.7636922814        6.7637143909        8.9127990311
  C         6.4904749073        6.4904901864       10.2270519704
  N        19.7288109489       17.5718380551        6.7636329848
  C        21.0452942666       17.2986357057        6.4907750359
  N         8.9124066032       17.5713083234       17.5713088436
  C        10.2269207635       17.2982793859       17.2982769091
  N         3.0507481395        5.2044022915        6.7636465915
  C         1.7350807471        5.4778725079        6.4903152735
  N        13.8634625792        5.2048881035       17.5713437763
  C        12.5489697581        5.4777518640       17.2982382174
  N         3.0509177404       17.5717532558       16.0124309018
  C         1.7351910201       17.2981217363       16.2856664221
  N        13.8634576526       17.5713398743        5.2048837305
  C        12.5489707305       17.2982440395        5.4777564644
  N        19.7288509535        5.2043491109       16.0123151433
  C        21.0453191616        5.4774626005       16.2852432369
  N         8.9126278497        5.2048093365        5.2048088433
  C        10.2270222974        5.4777910226        5.4777969243
  N         6.7636292872       19.7288021007       17.5718547319
  C         6.4907631144       21.0453074632       17.2986512976
  N         6.7636898643        8.9127985026        6.7637092562
  C         6.4904721753       10.2270579821        6.4904954418
  N         6.7636345029        3.0507462370        5.2043824873
  C         6.4902833030        1.7350962727        5.4778459524
  N         6.7636582023       13.8632349395       16.0123230182
  C         6.4904136868       12.5489392224       16.2854972583
  N        16.0124402032        3.0509181419       17.5717489641
  C        16.2856693859        1.7351880349       17.2981293981
  N        16.0123474246       13.8632282930        6.7636747175
  C        16.2855349524       12.5489310017        6.4904489137
  N        16.0123323280       19.7288553901        5.2043409447
  C        16.2852602406       21.0453036172        5.4774521738
  N        16.0123533183        8.9126788137       16.0123318335
  C        16.2855861408       10.2269615293       16.2855539649
  N        17.5718517800        6.7636293609       19.7288132050
  C        17.2986532555        6.4907624921       21.0452971212
  N        17.5713018181       17.5712835234        8.9124035697
  C        17.2982938517       17.2982669588       10.2269311238
  N         5.2043886078        6.7636280220        3.0507649159
  C         5.4778422743        6.4902825720        1.7350917662
  N         5.2048664048       17.5713500404       13.8634515848
  C         5.4777527773       17.2982386354       12.5489787608
  N        17.5717528814       16.0124385039        3.0509231022
  C        17.2981285566       16.2856699118        1.7351878149
  N        17.5713655847        5.2048957940       13.8634517827
  C        17.2982705823        5.4777847657       12.5489818235
  N         5.2043319446       16.0123241980       19.7288597224
  C         5.4774465921       16.2852559287       21.0453095633
  N         5.2047944878        5.2048215810        8.9126233294
  C         5.4777804882        5.4778002050       10.2270393347
  N        17.5718295077       19.7287495111       16.0123789826
  C        17.2985889750       21.0452676280       16.2852240954
  N        17.5713769322        8.9125121344        5.2048965464
  C        17.2982880012       10.2269821967        5.4777947583
  N         5.2044110796        3.0508073749       16.0123810860
  C         5.4779060786        1.7351444350       16.2857042577
  N         5.2048181619       13.8633468679        5.2048351840
  C         5.4777802718       12.5489169226        5.4778036242
  N        17.5717817521        3.0508633439        6.7635775997
  C        17.2981962395        1.7351470261        6.4903182002
  N        17.5712974375       13.8635651432       17.5712865833
  C        17.2982894815       12.5490386388       17.2982653127
  N         5.2043169781       19.7289116996        6.7636794571
  C         5.4773821873       21.0453535893        6.4907293393
  N         5.2048681073        8.9125182765       17.5713483012
  C         5.4777495068       10.2269667620       17.2982348314
  N        19.7289215094        6.7637066584        5.2043384790
  C        21.0453605139        6.4907674635        5.4774201045
  N         8.9127346280        6.7636703731       16.0123250873
  C        10.2270158614        6.4904149105       16.2854985080
  N         3.0508614149        6.7635702935       17.5717622798
  C         1.7351479722        6.4903281144       17.2981810061
  N        13.8631751883        6.7636934952        6.7636900991
  C        12.5488957009        6.4904810964        6.4904920296
  N         3.0508169081       16.0123790341        5.2044251807
  C         1.7351311904       16.2856888149        5.4779218214
  N        13.8632908169       16.0123527005       16.0123527332
  C        12.5490065039       16.2855740625       16.2855706980
  N        19.7287517633       16.0123779173       17.5718237546
  C        21.0452474278       16.2852204763       17.2985778102
  N         8.9127337339       16.0123235643        6.7636650481
  C        10.2270246514       16.2855018783        6.4904215726
  N         6.7635692707       17.5717738872        3.0508586078
  C         6.4903165888       17.2981907441        1.7351387651
  N         6.7636729963        6.7636908832       13.8631653073
  C         6.4904773554        6.4904906891       12.5488956576
  N         6.7636793558        5.2043180003       19.7289161147
  C         6.4907235872        5.4773840496       21.0453512679
  N         6.7636623426       16.0123176372        8.9127380898
  C         6.4904122218       16.2854979310       10.2270067664
  N        16.0123838622       17.5718242626       19.7287478228
  C        16.2852270191       17.2985872845       21.0452518640
  N        16.0123442986        6.7636957148        8.9127345851
  C        16.2855396424        6.4904524143       10.2270082632
  N        16.0123872736        5.2044150484        3.0508169699
  C        16.2857057949        5.4779073780        1.7351267351
  N        16.0123623923       16.0123463539       13.8632902388
  C        16.2855811186       16.2855545640       12.5489695518
 Zn        14.6819686656       14.6819571762       14.6819562277
 Br        13.3627261509       13.3627025647       13.3627016534
 Zn        14.6827143523        3.8760474957        3.8760488556
 Br        13.3635755072        2.5554889979        2.5554898866
 Zn         3.8760386525       14.6827064885        3.8760545501
 Br         2.5554809734       13.3635625076        2.5555035046
 Zn         3.8760469374        3.8760635894       14.6827071027
 Br         2.5554802985        2.5555039087       13.3635641372
 Zn         8.0939944436        8.0940020402       14.6819192549
 Br         9.4132445250        9.4132548039       13.3626853743
 Zn         8.0929037463       18.9007243450        3.8763445497
 Br         9.4124198375       20.2204962852        2.5554356260
 Zn        18.9007373614        8.0929136221        3.8763731315
 Br        20.2205039952        9.4124254935        2.5554655008
 Zn        18.9003840402       18.9003753843       14.6833674180
 Br        20.2205269751       20.2205197132       13.3634888840
 Zn         8.0939999364       14.6819143583        8.0940124820
 Br         9.4132479051       13.3626843352        9.4132566008
 Zn         8.0928985190        3.8763516365       18.9007172968
 Br         9.4124170731        2.5554365015       20.2204943010
 Zn        18.9003868708       14.6833691025       18.9003748031
 Br        20.2205261553       13.3634890584       20.2205187833
 Zn        18.9007369713        3.8763744996        8.0929124044
 Br        20.2205031595        2.5554639217        9.4124278380
 Zn        14.6819515798        8.0940193972        8.0940200869
 Br        13.3627155219        9.4132615147        9.4132618287
 Zn        14.6833765577       18.9003849298       18.9003849392
 Br        13.3634899825       20.2205263125       20.2205252957
 Zn         3.8763426708        8.0929018176       18.9007149128
 Br         2.5554334277        9.4124203561       20.2204874416
 Zn         3.8763401915       18.9007191810        8.0929023885
 Br         2.5554329363       20.2204882666        9.4124214582
 Zn        14.6819568511       14.6819317710        8.0939942801
 Br        13.3627188730       13.3626872081        9.4132506950
 Zn        14.6830430104        3.8763668395       18.9007043966
 Br        13.3635301432        2.5554456700       20.2204855779
 Zn         3.8763593299       14.6830414423       18.9007040458
 Br         2.5554436665       13.3635303032       20.2204785623
 Zn         3.8760244483        3.8760500824        8.0932379381
 Br         2.5554729113        2.5555023536        9.4123815188
 Zn         8.0940113495        8.0940256496        8.0940309565
 Br         9.4132520572        9.4132631586        9.4132631762
 Zn         8.0925699976       18.9004054393       18.9004046450
 Br         9.4124568885       20.2205369981       20.2205357487
 Zn        18.9004075538        8.0925737867       18.9003923166
 Br        20.2205365368        9.4124621912       20.2205262029
 Zn        18.9004090776       18.9003906182        8.0925715481
 Br        20.2205376669       20.2205263725        9.4124618115
 Zn        14.6819581565        8.0939937818       14.6819310910
 Br        13.3627182243        9.4132501593       13.3626875001
 Zn        14.6830455017       18.9007054863        3.8763653051
 Br        13.3635318297       20.2204851154        2.5554458746
 Zn         3.8760191331        8.0932375599        3.8760473339
 Br         2.5554728309        9.4123813941        2.5555020012
 Zn         3.8763585631       18.9007023054       14.6830388718
 Br         2.5554432355       20.2204807498       13.3635277291
 Zn         8.0939805496       14.6819361976       14.6819353272
 Br         9.4132362780       13.3626979176       13.3626970128
 Zn         8.0932308372        3.8760318250        3.8760337564
 Br         9.4123757076        2.5554809660        2.5554819345
 Zn        18.9007130040       14.6830312592        3.8763812641
 Br        20.2204942564       13.3635202450        2.5554663911
 Zn        18.9007088949        3.8763825821       14.6830312243
 Br        20.2204935600        2.5554652097       13.3635200193
 Zn         5.9848482707        5.9848644471       16.7917064805
 Zn        16.7917078737       16.7917031682       16.7917040713
 Zn        16.7917209083        5.9848716766        5.9848671912
 Zn         5.9848532023       16.7917032558        5.9848589673
 Zn         5.9848472663        5.9848658086        5.9848589053
 Zn        16.7917116454       16.7916970779        5.9848617617
 Zn         5.9848545236       16.7917078384       16.7917047087
 Zn        16.7917136906        5.9848671678       16.7917015109
  N         3.7970536127        5.9839368365       16.7921568243
  N        14.6093901188        5.9842682903        5.9842610943
  N        18.9823192982       16.7922058065       16.7922092415
  N         8.1665240419       16.7918638696        5.9843284307
  N        18.9824692722        5.9839948971        5.9839926019
  N         8.1665076751        5.9843283178       16.7918690742
  N         3.7970395713       16.7921503359        5.9839290006
  N        14.6095334889       16.7918038096       16.7918034288
  N        16.7921558126        3.7970453788        5.9839243735
  N        16.7918138988       14.6095351857       16.7918063172
  N        16.7922085863       18.9823201504       16.7922158416
  N        16.7918933610        8.1665215176        5.9843336504
  N         5.9839715891       18.9824689053        5.9839802315
  N         5.9843135552        8.1665101872       16.7918684541
  N         5.9839245170        3.7970600076       16.7921541894
  N         5.9842664703       14.6093825807        5.9842783573
  N         5.9839194739       16.7921486397        3.7970412254
  N         5.9842624549        5.9842805334       14.6093985309
  N        16.7922046870       16.7922197253       18.9823201672
  N        16.7918886924        5.9843454738        8.1665195871
  N         5.9839690428        5.9839829379       18.9824561400
  N         5.9843219103       16.7918612439        8.1665244224
  N        16.7921632042        5.9839296185        3.7970436288
  N        16.7918183038       16.7918101694       14.6095330599
  N         5.9839763946        3.7969817725        5.9839830355
  N         5.9843206866       14.6094578346       16.7918662476
  N        16.7921557159       18.9823926022        5.9839173828
  N        16.7918225791        8.1664427139       16.7918077635
  N         5.9839197705       18.9823929438       16.7921564905
  N         5.9842601366        8.1665841417        5.9842771200
  N        16.7922085828        3.7971276155       16.7922121344
  N        16.7918816185       14.6094632123        5.9843287988
  N         3.7971143936       16.7922070227       16.7922102048
  N        14.6094651915       16.7918687357        5.9843238965
  N        18.9823924636       16.7921514398        5.9839326878
  N         8.1664475212       16.7918012964       16.7918004962
  N        18.9823870451        5.9839380415       16.7921573890
  N         8.1665834463        5.9842679934        5.9842604758
  N         3.7969773232        5.9839889083        5.9839877287
  N        14.6094660938        5.9843277956       16.7918697539
  N        16.7921588578        5.9839251603       18.9823885692
  N        16.7918270308       16.7918102637        8.1664455695
  N        16.7922092338       16.7922131426        3.7971190840
  N        16.7918745377        5.9843401188       14.6094678729
  N         5.9839742448        5.9839851489        3.7969786178
  N         5.9843265392       16.7918597319       14.6094598595
  N         5.9839135001       16.7921503276       18.9823935853
  N         5.9842540497        5.9842789063        8.1665860674
  C        11.3879556242       15.7404090332       15.7404079043
  H        11.3879763842       14.9677755961       14.9677749122
  C        11.3879802964        4.9325853970        4.9325959215
  H        11.3879769920        4.1599567609        4.1599606734
  C         0.5716202276       15.7417413102        4.9340778784
  H         0.5766045405       14.9689107508        4.1612090065
  C         0.5716274431        4.9340825168       15.7417470141
  H         0.5766019165        4.1612028462       14.9689055474
  C        11.3879648413        7.0355547649       15.7403225549
  H        11.3879769829        7.8082166105       14.9676982199
  C        11.3880020222       17.8434022236        4.9325721362
  H        11.3879756904       18.6160384704        4.1599260056
  C         0.5716119944        7.0342544355        4.9340098440
  H         0.5766053002        7.8070728505        4.1611547741
  C         0.5716080307       17.8419261022       15.7417309994
  H         0.5766052078       18.6147848025       14.9688927762
  C        11.3879604328       15.7403249748        7.0355647752
  H        11.3879784685       14.9677010545        7.8082169174
  C        11.3879826345        4.9325673973       17.8433941976
  H        11.3879758306        4.1599266697       18.6160349840
  C         0.5716384791       15.7417312216       17.8419263548
  H         0.5766027037       14.9688960034       18.6147818895
  C         0.5716377778        4.9340101878        7.0342527585
  H         0.5766031435        4.1611517311        7.8070753211
  C        11.3879736631        7.0356435076        7.0356520183
  H        11.3879767222        7.8082868149        7.8082897784
  C        11.3880059565       17.8434207921       17.8434185525
  H        11.3879727309       18.6160730899       18.6160716025
  C         0.5716266756        7.0342510634       17.8420066381
  H         0.5766017965        7.8070847078       18.6148400401
  C         0.5716272263       17.8420050410        7.0342508110
  H         0.5766039553       18.6148427600        7.8070871301
  C        15.7404313694       11.3879955439       15.7403997379
  H        14.9677706847       11.3879750816       14.9677557904
  C        15.7417587803        0.5716324139        4.9340637938
  H        14.9689258650        0.5766046743        4.1612082736
  C         4.9325783346       11.3879808989        4.9326052356
  H         4.1599435666       11.3879736514        4.1599558257
  C         4.9340664828        0.5716325787       15.7417584517
  H         4.1612019388        0.5766019092       14.9689172793
  C        15.7403627553       11.3879905494        7.0355958540
  H        14.9677103078       11.3879730332        7.8082349435
  C        15.7417392460        0.5716402240       17.8419283337
  H        14.9688972725        0.5766035141       18.6147837653
  C         4.9325622580       11.3879782889       17.8433987070
  H         4.1599261976       11.3879785935       18.6160332641
  C         4.9339793681        0.5716301685        7.0342211267
  H         4.1611425181        0.5766040176        7.8070604808
  C         7.0355524042       11.3879657806       15.7403239125
  H         7.8082166682       11.3879792440       14.9676957817
  C         7.0342179064        0.5716274681        4.9339805542
  H         7.8070632530        0.5766049529        4.1611395315
  C        17.8434405892       11.3879677403        4.9326000992
  H        18.6160491377       11.3879751247        4.1599425070
  C        17.8419273311        0.5716180405       15.7417391537
  H        18.6147871285        0.5766045882       14.9688927285
  C         7.0356429387       11.3879769474        7.0356630835
  H         7.8082771037       11.3879739288        7.8082842806
  C         7.0342361465        0.5716407227       17.8420143297
  H         7.8070854386        0.5766015834       18.6148499289
  C        17.8434354742       11.3879566284       17.8434123424
  H        18.6160657958       11.3879788440       18.6160593760
  C        17.8420152009        0.5716159427        7.0342391916
  H        18.6148518584        0.5766046531        7.8070888728
  C        15.7404301817       15.7404006669       11.3879977624
  H        14.9677693219       14.9677553902       11.3879741396
  C        15.7417635193        4.9340657120        0.5716286980
  H        14.9689210311        4.1612017614        0.5766056664
  C         4.9340617696       15.7417549321        0.5716213789
  H         4.1612075664       14.9689226665        0.5766031134
  C         4.9325858374        4.9326023962       11.3879679046
  H         4.1599475690        4.1599570021       11.3879742998
  C         7.0355592305       15.7403203017       11.3879874206
  H         7.8082120558       14.9677019522       11.3879768139
  C         7.0342143943        4.9339817187        0.5716252304
  H         7.8070655944        4.1611350285        0.5766054676
  C        17.8419300568       15.7417401244        0.5716222029
  H        18.6147897031       14.9688920324        0.5766027010
  C        17.8434304263        4.9326012483       11.3879662062
  H        18.6160531648        4.1599347888       11.3879756226
  C        15.7403543690        7.0355932626       11.3879939040
  H        14.9677143629        7.8082282014       11.3879726742
  C        15.7417367466       17.8419324613        0.5716334899
  H        14.9689015056       18.6147810795        0.5766044457
  C         4.9339731558        7.0342221220        0.5716146445
  H         4.1611443680        7.8070573364        0.5766075001
  C         4.9325653769       17.8433976059       11.3879651115
  H         4.1599215834       18.6160390885       11.3879776933
  C         7.0356430161        7.0356520937       11.3879962415
  H         7.8082794348        7.8082828232       11.3879724290
  C         7.0342379226       17.8420155559        0.5716325384
  H         7.8070888155       18.6148519784        0.5766021376
  C        17.8420195360        7.0342397167        0.5716190053
  H        18.6148477998        7.8070829540        0.5766048106
  C        17.8434387352       17.8434162218       11.3879563873
  H        18.6160640521       18.6160568331       11.3879776884
 Kr        -0.0006557296       10.8068564778       10.8068564764
