     409
 i =     176, E =    -5136.6845730470
  N         2.9225127155        5.2020547988       15.9700312914
  C         1.6056408387        5.4781231403       16.2402777516
  N        13.7137854627        5.0518375032        5.0519916547
  C        12.3944151144        5.3236656502        5.3248634682
  N        19.6737902965       17.6051264737       16.0489359908
  C        20.9904395835       17.3166459181       16.3009679559
  N         8.7829336112       17.5479606309        5.1738739208
  C        10.1036738933       17.2689406763        5.4208618843
  N        19.5880881475        5.1984679351        6.7552499140
  C        20.9058076515        5.4715637329        6.4884018574
  N         8.7823292433        5.1734592105       17.5488996735
  C        10.1031060731        5.4198004798       17.2696288509
  N         2.9298036647       17.5246676954        6.7593694945
  C         1.6113141916       17.2577304008        6.4919607075
  N        13.8024519353       17.6665638802       17.6666028536
  C        12.4868334995       17.3864439129       17.3866662319
  N        15.9418105174        2.9937809519        5.1343539605
  C        16.2129351726        1.6824876909        5.4227869122
  N        15.9804285261       13.9174186913       16.0673013246
  C        16.2506178583       12.5956755420       16.3203253488
  N        15.9893311636       19.7798213849       17.6200696544
  C        16.2347543095       21.0949313266       17.3192515256
  N        15.8352266339        8.8395144974        6.6969618136
  C        16.1080849484       10.1649426608        6.4724820350
  N         6.6055432028       19.6815275577        5.1885875369
  C         6.3234529229       20.9969315040        5.4495320842
  N         6.6932831401        8.8932883636       15.9916164519
  C         6.4360865269       10.2144825599       16.2667979288
  N         6.6171079296        3.0426821942       17.5459817752
  C         6.3537943462        1.7239387997       17.2809626188
  N         6.6270107055       13.8121298414        6.7425822763
  C         6.3616374721       12.4946913963        6.4630416713
  N         5.0726564209       15.9795356228        3.0309691023
  C         5.3465524326       16.2569830593        1.7148867376
  N         5.0721416790        5.1856337672       13.8187835876
  C         5.3447322642        5.4482776667       12.5001290810
  N        17.5291123158       16.0479882659       19.7744443684
  C        17.2393742390       16.2927172329       21.0925343793
  N        17.4060544744        5.1673690888        8.8805032000
  C        17.1323520055        5.4722800135       10.1907130216
  N         5.0707161124        6.7640042319       19.6789744413
  C         5.3219329307        6.4792736668       20.9973034552
  N         5.1072346307       17.5177433773        8.9034536266
  C         5.4010189372       17.2627212090       10.2188757572
  N        17.4723485119        6.7150661446        3.0155241108
  C        17.2133124010        6.4528017438        1.6947569661
  N        17.5320848485       17.6250937015       13.8990892162
  C        17.2626344378       17.3384281507       12.5840897951
  N         5.0277921990        2.9975306902        6.7140166620
  C         5.2999597080        1.6778938445        6.4545405610
  N         5.1515619926       13.8555974263       17.5518817890
  C         5.4222459619       12.5394266049       17.2784730704
  N        17.4806036035       19.7020406606        6.7578426522
  C        17.2162406274       21.0167727325        6.4734924944
  N        17.5025780628        8.9409281906       17.5933544606
  C        17.2468942358       10.2608167132       17.3204191557
  N         5.1105527324       19.7122973518       16.0014542372
  C         5.3650068746       21.0332631073       16.2694285991
  N         5.0825696169        8.8633122335        5.1496573726
  C         5.3528128008       10.1784386881        5.4301033946
  N        17.4444976271        3.0918809859       15.9540708487
  C        17.1997425616        1.7729905771       16.2443393336
  N        17.4103039883       13.8325880463        5.2975243477
  C        17.1334432885       12.5115019665        5.5402033682
  N         2.9857946147       15.9907009292       17.5453066455
  C         1.6689809308       16.2724643225       17.2879562719
  N        13.7531686823       15.9842642877        6.6923788610
  C        12.4327327210       16.2347311981        6.4093939279
  N        19.6031705681       15.9657122495        5.2390779921
  C        20.9237468181       16.2380842332        5.4942552890
  N         8.8720246954       16.0567681762       16.0570606112
  C        10.1829104989       16.3448728639       16.3452607306
  N        19.6156374833        6.7752693816       17.5402190535
  C        20.9305271519        6.4999853335       17.2635066243
  N         8.7739464040        6.6455315717        6.6474292601
  C        10.0838984173        6.3576178823        6.3601266392
  N         2.9038983225        6.7439774263        5.1891697832
  C         1.5864424341        6.4821952719        5.4673461993
  N        13.7527633566        6.6901158623       15.9845415652
  C        12.4323070586        6.4071959569       16.2348651094
  N        15.9382208961        5.1896338185       19.6909593987
  C        16.2111937337        5.4477749972       21.0078202945
  N        15.9558240691       16.0295974796        8.9516090620
  C        16.2347761878       16.3000086459       10.2703588764
  N        15.9092244391       17.5293622137        3.0864373792
  C        16.1967438178       17.2723849323        1.7718130052
  N        15.8471781356        6.8537892643       13.8087896836
  C        16.1096412783        6.5533418278       12.4930842290
  N         6.5581986551        5.1344384546        2.9883871298
  C         6.2992314022        5.4231785626        1.6742011337
  N         6.7376590474       16.0257387521       13.8605318219
  C         6.4575290289       16.2822907384       12.5401424623
  N         6.6465855255       17.5758796178       19.7306082376
  C         6.3691013779       17.2963591504       21.0446206600
  N         6.6503344495        6.6921295697        8.8503860685
  C         6.3744618683        6.4393793357       10.1716420121
  N        19.6158794159       17.5401039976        6.7752104265
  C        20.9307838376       17.2634545645        6.4999523153
  N         8.8348856666       17.6125516754       17.6126078060
  C        10.1605272651       17.3600234250       17.3602184155
  N         2.9039971575        5.1886432420        6.7447431721
  C         1.5865049354        5.4667047690        6.4830792076
  N        13.7429320371        5.1930766419       17.5937677806
  C        12.4266129021        5.4316548332       17.2887979359
  N         2.9858108417       17.5452687618       15.9907385541
  C         1.6689907022       17.2879407951       16.2724869051
  N        13.7435039598       17.5924928162        5.1941442452
  C        12.4271628656       17.2880092542        5.4331038894
  N        19.6028312038        5.2395891068       15.9654086688
  C        20.9234406004        5.4945055263       16.2379214771
  N         8.7427031586        5.0905656164        5.0907256103
  C        10.0673475347        5.3436991002        5.3448341901
  N         6.6465557299       19.7304712616       17.5759636661
  C         6.3690437291       21.0444827514       17.2965020473
  N         6.6509090388        8.8499846955        6.6921480842
  C         6.3749710112       10.1712344705        6.4394067737
  N         6.5584173479        2.9880564896        5.1346477817
  C         6.2994967541        1.6738245673        5.4232913577
  N         6.7375986583       13.8603737071       16.0258546012
  C         6.4574647107       12.5399896992       16.2824299328
  N        15.9091776368        3.0865048982       17.5295712889
  C        16.1967577744        1.7719319587       17.2723991762
  N        15.8492216307       13.8079751939        6.8518535217
  C        16.1120354877       12.4923040634        6.5511834449
  N        15.9382483745       19.6908548216        5.1897860009
  C        16.2111879569       21.0077780078        5.4480317116
  N        15.9567191864        8.9515461839       16.0302459187
  C        16.2355422204       10.2703422319       16.3002939412
  N        17.4806751097        6.7575727500       19.7021557054
  C        17.2163620937        6.4731066900       21.0168471660
  N        17.5021127043       17.5924606143        8.9406383474
  C        17.2463542403       17.3199404552       10.2605754006
  N         5.0276152027        6.7138385403        2.9980359543
  C         5.2997314633        6.4544700889        1.6783490138
  N         5.1516516911       17.5518047844       13.8557028395
  C         5.4223458802       17.2783723930       12.5395399347
  N        17.4449081585       15.9543208560        3.0915693282
  C        17.1999303754       16.2445444571        1.7727486497
  N        17.4082539927        5.2992214294       13.8327546090
  C        17.1310238495        5.5422461662       12.5117952366
  N         5.1105448961       16.0014006885       19.7123960407
  C         5.3650407311       16.2693086411       21.0333705090
  N         5.0824970903        5.1491210925        8.8637877342
  C         5.3525731040        5.4298085586       10.1788840028
  N        17.5290799988       19.7745956489       16.0478611458
  C        17.2393333757       21.0927024634       16.2926139188
  N        17.4093385464        8.8803546311        5.1644578231
  C        17.1353501586       10.1904069927        5.4696396381
  N         5.0724291682        3.0308512105       15.9800077226
  C         5.3464051529        1.7147617095       16.2573021932
  N         5.0722839496       13.8183177936        5.1858436200
  C         5.3449731845       12.4996761764        5.4484483624
  N        17.4715545217        3.0156642102        6.7164944190
  C        17.2129268132        1.6948257696        6.4537833799
  N        17.5319418859       13.8994024859       17.6249835702
  C        17.2628542449       12.5843255729       17.3384380493
  N         5.0710343576       19.6785339136        6.7640041156
  C         5.3222440357       20.9968599955        6.4792652398
  N         5.1071131213        8.9033503725       17.5179751762
  C         5.4009266676       10.2187548976       17.2628950448
  N        19.5882121935        6.7536155948        5.1989206787
  C        20.9058196569        6.4870083744        5.4723465735
  N         8.7952179828        6.6699698187       15.9362220954
  C        10.1099857990        6.3929090352       16.2148678227
  N         2.9295181952        6.7593407046       17.5249567133
  C         1.6110394569        6.4919699232       17.2579172425
  N        13.7211877140        6.6032250414        6.6061123464
  C        12.4023938485        6.3382899613        6.3411619658
  N         2.9227654839       15.9697947722        5.2020372577
  C         1.6059090703       16.2401587273        5.4780497614
  N        13.8274811331       16.1124122063       16.1130003371
  C        12.5046361266       16.3706254678       16.3711525576
  N        19.6737805609       16.0489660078       17.6050610996
  C        20.9904277344       16.3009843299       17.3166073269
  N         8.7955446929       15.9360275518        6.6711846465
  C        10.1104022144       16.2147240810        6.3946202130
  N         6.6173996943       17.5454612128        3.0428665214
  C         6.3539775497       17.2806147113        1.7240984975
  N         6.6266870990        6.7425541666       13.8125337122
  C         6.3612559368        6.4630145370       12.4950995773
  N         6.6050593769        5.1884332276       19.6819699988
  C         6.3230492607        5.4494605622       20.9973435740
  N         6.6932003621       15.9911917977        8.8934882901
  C         6.4360760149       16.2665238108       10.2146523588
  N        15.9892631615       17.6200736670       19.7797074731
  C        16.2347021922       17.3192605674       21.0948150760
  N        15.8315540319        6.6996852505        8.8405216643
  C        16.1050627385        6.4750745809       10.1656906099
  N        15.9419749634        5.1335860307        2.9936653766
  C        16.2129871357        5.4221368846        1.6823935884
  N        15.9803649809       16.0676414515       13.9175838961
  C        16.2501822765       16.3204954874       12.5957231941
 Zn        14.6878225832       14.8285495875       14.8284537097
 Br        13.1999953464       13.6279559817       13.6220325485
 Zn        14.6540139461        3.7936088384        3.7937873162
 Br        13.4009961482        2.4518899186        2.4523101080
 Zn         3.7829244728       14.6858935788        3.8955484131
 Br         2.4531772645       13.3901362594        2.5766073924
 Zn         3.7827816677        3.8954437470       14.6864849426
 Br         2.4529289118        2.5766475166       13.3905984303
 Zn         7.9491237208        8.0066096066       14.6730277193
 Br         9.2358081468        9.3174948276       13.3268908755
 Zn         7.9072910923       18.8383305338        3.8978377187
 Br         9.2212568058       20.1604247671        2.5896106975
 Zn        18.7292357607        8.0315138671        3.8910904175
 Br        20.0454570449        9.3577654945        2.5926960519
 Zn        18.8249816076       18.9133998040       14.7619549634
 Br        20.1354218714       20.2265275314       13.4415533685
 Zn         7.9491086832       14.6724931816        8.0070008140
 Br         9.2353381960       13.3264669182        9.3184213791
 Zn         7.9068032308        3.8975562066       18.8391371318
 Br         9.2208236837        2.5892311713       20.1610590830
 Zn        18.8249459194       14.7620643116       18.9133061022
 Br        20.1352824634       13.4412868236       20.2261340141
 Zn        18.7271766863        3.8922504561        8.0338692949
 Br        20.0426061049        2.5945379455        9.3613488801
 Zn        14.5420775140        7.8957227122        7.8928841639
 Br        12.9909042815        9.0763294224        9.0302370190
 Zn        14.7050651045       18.9394480633       18.9394169047
 Br        13.4094382709       20.2625807711       20.2626853210
 Zn         3.7940617273        8.0615038984       18.8063662461
 Br         2.4856096106        9.3818783747       20.1206251522
 Zn         3.7942232427       18.8060292407        8.0614970137
 Br         2.4858379703       20.1204954179        9.3817748155
 Zn        14.5996163232       14.8052144497        8.0964990638
 Br        13.0171385856       14.1650538577        9.5958121775
 Zn        14.6220591484        3.9033571981       18.8576305112
 Br        13.3213692647        2.5741670057       20.1661140536
 Zn         3.8422486844       14.7007993796       18.8353654594
 Br         2.5225677311       13.3828686253       20.1424463173
 Zn         3.7634672399        3.8779026666        8.0175921768
 Br         2.4457394989        2.5758876643        9.3430797256
 Zn         7.9500912368        7.9554652346        7.9558613192
 Br         9.2229600948        9.2899269725        9.2920296795
 Zn         7.9341551168       18.8871436458       18.8872203836
 Br         9.2157932163       20.2184074308       20.2184575629
 Zn        18.7822722496        8.0550470189       18.8691068037
 Br        20.1137472894        9.3356968275       20.1985764699
 Zn        18.7820471566       18.8684854394        8.0551144792
 Br        20.1132664095       20.1982362857        9.3358836973
 Zn        14.5981583165        8.0973391512       14.8090589947
 Br        13.0109557034        9.6001668916       14.1880613164
 Zn        14.6219832679       18.8564088085        3.9039184401
 Br        13.3210358098       20.1652049971        2.5751760176
 Zn         3.7631821890        8.0172323117        3.8786977523
 Br         2.4459057015        9.3429117111        2.5764753615
 Zn         3.8422783138       18.8352915044       14.7008215102
 Br         2.5226750453       20.1424117373       13.3828567417
 Zn         8.0378372111       14.7536138126       14.7538110583
 Br         9.3138498304       13.4190867665       13.4195657895
 Zn         7.8425643200        3.8172237516        3.8172914111
 Br         9.1374241229        2.4930382739        2.4931628922
 Zn        18.7152620195       14.6635256034        3.9836345256
 Br        20.0095312711       13.3215808156        2.6753705596
 Zn        18.7143356776        3.9850513623       14.6632600669
 Br        20.0078910661        2.6770195671       13.3204538311
 Zn         5.8540329040        5.9654293224       16.7505660531
 Zn        16.7585253387       16.8608265216       16.8606531074
 Zn        16.6616183052        5.9038705541        5.9033996844
 Zn         5.8542548049       16.7498621855        5.9655614370
 Zn         5.8340021393        5.9190987552        5.9197652243
 Zn        16.6716546515       16.7788634755        6.0146975105
 Zn         5.9186189783       16.7854887420       16.7855962285
 Zn        16.6713251815        6.0146785494       16.7796512307
  N         3.6723312961        5.9786252018       16.7465111730
  N        14.4642577717        5.8280224837        5.8290914203
  N        18.9277937071       16.8365808235       16.8365279789
  N         8.0422868989       16.7437211979        5.9315873911
  N        18.8415335796        5.9730541600        5.9740354699
  N         8.0418287696        5.9310636092       16.7444177039
  N         3.6726034288       16.7461932082        5.9786575456
  N        14.5614822923       16.8939005332       16.8941478446
  N        16.7028923902        3.7501155609        5.9183107728
  N        16.7550234537       14.6558638961       16.8552740349
  N        16.7709302300       19.0314651753       16.8482469702
  N        16.6223411728        8.1127596791        5.9103265193
  N         5.8466040011       18.9331775057        5.9821968956
  N         5.8894195404        8.1519912749       16.7489831376
  N         5.8425540015        3.7835447427       16.7603856982
  N         5.8488690194       14.5619154373        5.9681923189
  N         5.8428611025       16.7598064553        3.7836850919
  N         5.8486864609        5.9680588598       14.5623615828
  N        16.7709073650       16.8483228400       19.0313213372
  N        16.6187892551        5.9131252840        8.1132478781
  N         5.8461848567        5.9820941878       18.9336134137
  N         5.8894420780       16.7486024016        8.1521457508
  N        16.7035182959        5.9170805423        3.7499942254
  N        16.7552187276       16.8555332577       14.6557787756
  N         5.7907906748        3.7395575101        5.9169188816
  N         5.9462460802       14.6041935843       16.7932677512
  N        16.7063911858       18.9497065671        5.9812781910
  N        16.7217992069        8.2002423212       16.8138459652
  N         5.8848645237       18.9744631017       16.7911810578
  N         5.8672707048        8.1098832686        5.9138401380
  N        16.6660453157        3.8358294520       16.7346321088
  N        16.6350955767       14.5675147558        6.0863340643
  N         3.7329473275       16.7620957881       16.7621406155
  N        14.4938365693       16.8042490124        5.9580388810
  N        18.8623692940       16.7538571757        6.0126222065
  N         8.1065897154       16.8255324898       16.8256439237
  N        18.8620707105        6.0129965173       16.7537930798
  N         8.0118553983        5.8761574401        5.8767440930
  N         3.6504524105        5.9615055624        5.9620920749
  N        14.4933555204        5.9565653262       16.8052492737
  N        16.7063856308        5.9811119658       18.9498230590
  N        16.7211778421       16.8128466190        8.2001556289
  N        16.6663542953       16.7345692139        3.8356652725
  N        16.6332683159        6.0879357157       14.5680039025
  N         5.7906094686        5.9166755098        3.7399801504
  N         5.9463065126       16.7931825611       14.6043260736
  N         5.8848613946       16.7911419573       18.9745789338
  N         5.8670149349        5.9134991555        8.1103359834
  C        11.3545973052       15.8095780544       15.8101951859
  H        11.3761607789       15.0344960140       15.0351458543
  C        11.2218316044        4.7844674690        4.7849982408
  H        11.2059084430        4.0097535642        4.0092161134
  C         0.4414664788       15.6869188187        4.9389857214
  H         0.4378806791       14.9077580785        4.1672625033
  C         0.4412071958        4.9391914039       15.6868337100
  H         0.4376981905        4.1675297919       14.9076126774
  C        11.2715588715        6.9168088606       15.6475270849
  H        11.2726120260        7.6678113759       14.8501885148
  C        11.2633829556       17.8455143647        4.8955153407
  H        11.2609796461       18.6502341653        4.1506574995
  C         0.4262214912        7.0356716511        4.9211287685
  H         0.4267544125        7.8100986071        4.1444717649
  C         0.5096762117       17.8517069682       15.7355677330
  H         0.5099509060       18.6272658775       14.9600552117
  C        11.2719144367       15.6478677763        6.9193850398
  H        11.2730582930       14.8507494550        7.6707015105
  C        11.2627217755        4.8945123876       17.8464817520
  H        11.2601449166        4.1500851237       18.6515893110
  C         0.5096472732       15.7355478157       17.8516927055
  H         0.5099007375       14.9600154771       18.6272390076
  C         0.4263595324        4.9206402207        7.0369923172
  H         0.4271977460        4.1442617144        7.8116699314
  C        11.2501973440        6.8949180417        6.8987969231
  H        11.2666314946        7.6696322842        7.6734892562
  C        11.3113614058       17.9224295619       17.9225328013
  H        11.2921088061       18.6977819815       18.6977204471
  C         0.4540361793        7.0417993486       17.8141844968
  H         0.4583434298        7.8123029166       18.5947663490
  C         0.4543368113       17.8140064837        7.0418670030
  H         0.4586911204       18.5944898132        7.8124583739
  C        15.6986062955       11.4420301982       15.7582572613
  H        14.9124928600       11.4528663041       14.9947289153
  C        15.6692139144        0.5193813482        4.8767039172
  H        14.9036356207        0.5114371011        4.0911542400
  C         4.7969983031       11.3417150500        4.8922629255
  H         4.0183144620       11.3448756692        4.1199772131
  C         4.8107557426        0.5470608983       15.7086780479
  H         4.0422821408        0.5366312097       14.9263586175
  C        15.5560936971       11.3116108300        7.0537694439
  H        14.7681758632       11.2733413033        7.8135856563
  C        15.6712420144        0.6153599004       17.8515318701
  H        14.9045162456        0.6189310641       18.6360112746
  C         4.8525336112       11.3804978284       17.8101431434
  H         4.0624001185       11.3828513313       18.5708921963
  C         4.7690967493        0.5182502037        7.0252828103
  H         4.0058309111        0.5193047722        7.8127803485
  C         7.0072034029       11.3757009301       15.7370781597
  H         7.7950994897       11.3744644766       14.9743114691
  C         6.8527942642        0.5146375300        4.8774823920
  H         7.6171315769        0.5138258810        4.0909080717
  C        17.6874292778       11.3671959075        4.9610793104
  H        18.4682587433       11.3940222481        4.1908813643
  C        17.7625634593        0.6107229220       15.7113560573
  H        18.5297904826        0.6062325421       14.9278474943
  C         6.9190080638       11.3305010616        6.9992786837
  H         7.6958411535       11.3279924830        7.7734441716
  C         6.9053870334        0.5712695749       17.8445316832
  H         7.6733690364        0.5820808882       18.6275221261
  C        17.8031806908       11.4147878073       17.8791287119
  H        18.5738895926       11.4026951361       18.6590996537
  C        17.7592369864        0.5414025797        7.0205562287
  H        18.5257182253        0.5490005243        7.8049716178
  C        15.6977718913       15.7584054388       11.4421934757
  H        14.9116627406       14.9948245217       11.4532733033
  C        15.6690724612        4.8763631861        0.5192933154
  H        14.9033534611        4.0909513622        0.5112455036
  C         4.8108228780       15.7084901624        0.5471552509
  H         4.0423263855       14.9261914392        0.5366969207
  C         4.7968345819        4.8919495247       11.3421956488
  H         4.0182675169        4.1195536304       11.3453902847
  C         7.0072102987       15.7368434042       11.3758792171
  H         7.7950584189       14.9740260840       11.3746236436
  C         6.8524486787        4.8773630644        0.5149856863
  H         7.6167536414        4.0907573597        0.5140923251
  C        17.7627463773       15.7115557962        0.6105130128
  H        18.5300440248       14.9281105076        0.6060779392
  C        17.6847579132        4.9634438537       11.3672165887
  H        18.4656389095        4.1932455994       11.3935396966
  C        15.5535294568        7.0562529478       11.3125627291
  H        14.7664237536        7.8168152804       11.2751276940
  C        15.6711137658       17.8514652090        0.6152523124
  H        14.9042914477       18.6358394810        0.6188542784
  C         4.7688748559        7.0252958015        0.5187385348
  H         4.0056629148        7.8128487687        0.5198389185
  C         4.8526686283       17.8100483837       11.3805974747
  H         4.0625753909       18.5708356214       11.3829286471
  C         6.9184403930        6.9993587593       11.3308808212
  H         7.6951595079        7.7736413958       11.3282698926
  C         6.9055025859       17.8442817294        0.5714367045
  H         7.6734983417       18.6272571086        0.5822745285
  C        17.7596048144        7.0198339616        0.5414589083
  H        18.5262287283        7.8041293244        0.5492301479
  C        17.8028709158       17.8788257636       11.4143902278
  H        18.5737109771       18.6586655750       11.4020615692
 Kr        12.5886552538       11.3119371744       11.3279319642
