     409
 i =     176, E =    -5136.7146799700
  N         2.9927278449        5.2049394813       16.0306468303
  C         1.6745154839        5.4735857167       16.2986044336
  N        13.8022589190        5.1988388565        5.1988366820
  C        12.4848680667        5.4699146199        5.4699146829
  N        19.6860139389       17.5755703181       16.0191874841
  C        21.0037090086       17.3086500026       16.2928940234
  N         8.8549436408       17.5845105698        5.2139034239
  C        10.1727041670       17.3116907634        5.4799810652
  N        19.6642538088        5.1976053539        6.7534974282
  C        20.9818805689        5.4706560086        6.4862916443
  N         8.8548976399        5.2139205209       17.5845166107
  C        10.1727382074        5.4799965339       17.3116962604
  N         2.9885578741       17.5844003636        6.7629513970
  C         1.6716616924       17.3131519842        6.4903101537
  N        13.8239415403       17.5754636173       17.5754708495
  C        12.5057094936       17.3066842890       17.3066931470
  N        15.9549835209        3.0428479469        5.1976401278
  C        16.2262890215        1.7254465071        5.4678513688
  N        15.9739890893       13.8652402457       16.0175792372
  C        16.2424511366       12.5474266578       16.2880638180
  N        15.9767110489       19.7267819703       17.5732579560
  C        16.2438746398       21.0446542657       17.3020569897
  N        15.9587831094        8.9083254461        6.7538607626
  C        16.2307546895       10.2257862312        6.4846038040
  N         6.6988464484       19.7404385318        5.2126130851
  C         6.4260183374       21.0576718019        5.4822820630
  N         6.6971269547        8.9167190027       16.0209050021
  C         6.4286913576       10.2346182615       16.2912732880
  N         6.7040525583        3.0579308364       17.5864443503
  C         6.4369239806        1.7396400226       17.3156333800
  N         6.7082031607       13.8754786734        6.7543922192
  C         6.4370304284       12.5579211831        6.4860953839
  N         5.1491380745       16.0295832303        3.0553462747
  C         5.4217904607       16.2994861259        1.7381382594
  N         5.1414947187        5.2096740421       13.8753044750
  C         5.4132508266        5.4786737541       12.5576392539
  N        17.5310086950       16.0161464107       19.7286934413
  C        17.2587688481       16.2857467359       21.0460628945
  N        17.5136239342        5.1971863119        8.9072044263
  C        17.2458937335        5.4684881501       10.2250049444
  N         5.1432875107        6.7691425176       19.7383492453
  C         5.4111808070        6.4988387246       21.0564271813
  N         5.1433321206       17.5797449574        8.9188368774
  C         5.4149133576       17.3089411184       10.2359463542
  N        17.5107934760        6.7537485694        3.0443568318
  C        17.2419100136        6.4835375322        1.7265945009
  N        17.5305961214       17.5731180529       13.8635982297
  C        17.2582974829       17.3035740403       12.5462520775
  N         5.1363170599        3.0559989248        6.7696815324
  C         5.4071089449        1.7381212643        6.4995424602
  N         5.1547117917       13.8753538575       17.5835666355
  C         5.4203783200       12.5573092957       17.3109742598
  N        17.5177780806       19.7281401004        6.7530873947
  C        17.2454552029       21.0453846798        6.4833161517
  N        17.5215357110        8.9069550728       17.5753229852
  C        17.2539483133       10.2249264212       17.3044593000
  N         5.1575842545       19.7385432465       16.0281879452
  C         5.4258948521       21.0565138412       16.2988459917
  N         5.1361683352        8.9185556511        5.2188838671
  C         5.4109204276       10.2363554004        5.4835362125
  N        17.5225173860        3.0455354170       16.0157036277
  C        17.2543929855        1.7274457286       16.2857316017
  N        17.5217862936       13.8638902519        5.2002054404
  C        17.2498951778       12.5463839670        5.4697161265
  N         3.0031983938       16.0302182344       17.5859684490
  C         1.6854056650       16.2980794294       17.3137700928
  N        13.8124679365       16.0190325672        6.7561862475
  C        12.4946482242       16.2915450049        6.4893925366
  N        19.6762448594       16.0205416859        5.1990483457
  C        20.9932539364       16.2933706658        5.4702636381
  N         8.8636424322       16.0247608885       16.0247668598
  C        10.1818813898       16.2937231988       16.2937296519
  N        19.6720731489        6.7545612542       17.5769448281
  C        20.9903966036        6.4860719749       17.3090319433
  N         8.8481633487        6.7590067873        6.7590035754
  C        10.1651991092        6.4875277661        6.4875271815
  N         2.9810742336        6.7652644898        5.2095441123
  C         1.6633110075        6.4919341616        5.4762023527
  N        13.8124582768        6.7562000479       16.0190418882
  C        12.4946604766        6.4893959001       16.2915656132
  N        15.9624310915        5.1966930724       19.7260416340
  C        16.2299252230        5.4674228307       21.0441141597
  N        15.9666822065       16.0184967158        8.9088191946
  C        16.2386697654       16.2883355596       10.2261446741
  N        15.9661900557       17.5716053113        3.0432115095
  C        16.2386910390       17.3015640983        1.7259464637
  N        15.9652321258        6.7559449298       13.8649690297
  C        16.2340952939        6.4854278983       12.5471410566
  N         6.6879318458        5.2100672052        3.0568291766
  C         6.4205713716        5.4816381186        1.7390605034
  N         6.7075247513       16.0250367866       13.8733906629
  C         6.4340073371       16.2932072716       12.5559716821
  N         6.7133317024       17.5845198134       19.7401596995
  C         6.4414294599       17.3148567380       21.0578167170
  N         6.7032817165        6.7641436630        8.9194351395
  C         6.4350257231        6.4908246757       10.2367612689
  N        19.6720747038       17.5769471029        6.7545733401
  C        20.9904135861       17.3090314560        6.4860850415
  N         8.8667864139       17.5811679158       17.5811744987
  C        10.1840416704       17.3095444453       17.3095511547
  N         2.9810553298        5.2095247953        6.7652842711
  C         1.6633219620        5.4762007778        6.4919358916
  N        13.8114117069        5.1979804839       17.5728361516
  C        12.4939473278        5.4723813211       17.3060569578
  N         3.0032089144       17.5859632708       16.0302233170
  C         1.6854019772       17.3137714615       16.2980777748
  N        13.8114192184       17.5728308704        5.1979639334
  C        12.4939379726       17.3060592397        5.4723559153
  N        19.6762439305        5.1990363869       16.0205403569
  C        20.9932361408        5.4702549393       16.2933760910
  N         8.8445367958        5.2032207542        5.2032175493
  C        10.1629947293        5.4718102663        5.4718097651
  N         6.7133262353       19.7401675027       17.5845246444
  C         6.4414183488       21.0578115501       17.3148573981
  N         6.7032878252        8.9194276595        6.7641490260
  C         6.4350279907       10.2367809749        6.4908299756
  N         6.6879200745        3.0568421337        5.2100677172
  C         6.4205708340        1.7390529195        5.4816278883
  N         6.7075377663       13.8733784903       16.0250485750
  C         6.4340140934       12.5560017408       16.2932287441
  N        15.9661913721        3.0432081620       17.5716069131
  C        16.2386964414        1.7259489521       17.3015658865
  N        15.9652288146       13.8649596547        6.7559495693
  C        16.2340908124       12.5471505206        6.4854318495
  N        15.9624405533       19.7260410658        5.1966994830
  C        16.2299293656       21.0441198458        5.4674267089
  N        15.9666737993        8.9088101760       16.0184977701
  C        16.2386644838       10.2261497419       16.2883381683
  N        17.5177657985        6.7530804478       19.7281249448
  C        17.2454505874        6.4833130770       21.0453809964
  N        17.5215472670       17.5753256465        8.9069605188
  C        17.2539569492       17.3044603227       10.2249206190
  N         5.1363295716        6.7696803254        3.0559962195
  C         5.4071174852        6.4995449062        1.7381204657
  N         5.1546993166       17.5835559008       13.8753631233
  C         5.4203535373       17.3109713127       12.5572779597
  N        17.5225177330       16.0156996429        3.0455304081
  C        17.2543904209       16.2857267159        1.7274442665
  N        17.5217856339        5.2002061486       13.8638884840
  C        17.2498921127        5.4697198098       12.5463748112
  N         5.1575904478       16.0281853288       19.7385442943
  C         5.4259018503       16.2988417282       21.0565172580
  N         5.1361608491        5.2188770081        8.9185627689
  C         5.4109254921        5.4835375816       10.2363267708
  N        17.5310084008       19.7286861281       16.0161566919
  C        17.2587758162       21.0460718880       16.2857522276
  N        17.5136139920        8.9072054522        5.1971907126
  C        17.2458936170       10.2250154929        5.4684844997
  N         5.1491277140        3.0553498855       16.0295869959
  C         5.4217722949        1.7381342875       16.2994812637
  N         5.1414970406       13.8752957744        5.2096732162
  C         5.4132552505       12.5576694080        5.4786796346
  N        17.5108041499        3.0443569894        6.7537554994
  C        17.2419101673        1.7266063334        6.4835365232
  N        17.5305964744       13.8635949672       17.5731256044
  C        17.2582908390       12.5462581194       17.3035760046
  N         5.1432793630       19.7383779920        6.7691448953
  C         5.4111808086       21.0564127705        6.4988317513
  N         5.1433449719        8.9187922155       17.5797475569
  C         5.4149273238       10.2360007940       17.3089465316
  N        19.6642349041        6.7534767642        5.1976260963
  C        20.9818932881        6.4862900351        5.4706578486
  N         8.8561438312        6.7702365041       16.0294240427
  C        10.1734597880        6.4962272785       16.2967182300
  N         2.9885681216        6.7629374952       17.5843945021
  C         1.6716419439        6.4903040375       17.3131565516
  N        13.8043094438        6.7552363722        6.7552341218
  C        12.4864615251        6.4856057942        6.4856056580
  N         2.9927279724       16.0306490096        5.2049476344
  C         1.6745338069       16.2986095934        5.4736008602
  N        13.8207457242       16.0195946800       16.0196030146
  C        12.5035842533       16.2910556896       16.2910650845
  N        19.6860178813       16.0191771036       17.5755808301
  C        21.0037020527       16.2928955255       17.3086486582
  N         8.8561893179       16.0294117933        6.7702241965
  C        10.1734284364       16.2967070836        6.4962162219
  N         6.7040689856       17.5864458917        3.0579232671
  C         6.4369324598       17.3156285158        1.7396421757
  N         6.7081909927        6.7543843078       13.8755031917
  C         6.4370280526        6.4860921629       12.5578948961
  N         6.6988492765        5.2126143357       19.7404239505
  C         6.4260227401        5.4822836542       21.0576813050
  N         6.6971192899       16.0208979353        8.9167615570
  C         6.4286838977       16.2912617586       10.2345694788
  N        15.9767099081       17.5732488287       19.7267872989
  C        16.2438680432       17.3020510067       21.0446524385
  N        15.9587940789        6.7538555881        8.9083158680
  C        16.2307588087        6.4846039179       10.2257869093
  N        15.9549725021        5.1976316447        3.0428381886
  C        16.2262850370        5.4678477380        1.7254471241
  N        15.9739897314       16.0175724351       13.8652425991
  C        16.2424563156       16.2880603701       12.5474268726
 Zn        14.6780989586       14.7249546954       14.7249514686
 Br        13.3615972190       13.4118259141       13.4118241789
 Zn        14.6621618886        3.9037116087        3.9037062641
 Br        13.3436621400        2.5914178546        2.5914179623
 Zn         3.8521418219       14.7366876589        3.9116320012
 Br         2.5371675331       13.4236267619        2.5969738443
 Zn         3.8521311750        3.9116259798       14.7366700258
 Br         2.5371549558        2.5969634074       13.4236154981
 Zn         7.9953693979        8.0565736120       14.7296502771
 Br         9.2936951091        9.3728353125       13.4011174679
 Zn         7.9962954163       18.8791621020        3.9228495185
 Br         9.3100489214       20.1931516301        2.6070526737
 Zn        18.8055671214        8.0476619313        3.9029208080
 Br        20.1211449280        9.3598125087        2.5877419592
 Zn        18.8241147556       18.8683839971       14.7228589137
 Br        20.1393443130       20.1810986439       13.4078636069
 Zn         7.9953728450       14.7296621173        8.0565715815
 Br         9.2936958829       13.4011204184        9.3728352763
 Zn         7.9962912495        3.9228426679       18.8791601107
 Br         9.3100469834        2.6070505270       20.1931515516
 Zn        18.8241132400       14.7228628620       18.8683781921
 Br        20.1393406163       13.4078684682       20.1810931559
 Zn        18.8055672347        3.9029268470        8.0476570559
 Br        20.1211374692        2.5877501344        9.3598057279
 Zn        14.6663418902        8.0495248169        8.0495189941
 Br        13.3656835309        9.3703500873        9.3703493568
 Zn        14.6855978490       18.8692260400       18.8692225458
 Br        13.3718358143       20.1838655188       20.1838641680
 Zn         3.8483503075        8.0592988859       18.8750946114
 Br         2.5366821980        9.3765291768       20.1892722894
 Zn         3.8483590659       18.8750958842        8.0592972491
 Br         2.5366888591       20.1892691385        9.3765265747
 Zn        14.6714733470       14.7247453643        8.0507236380
 Br        13.3525357111       13.4149977021        9.3648340337
 Zn        14.6703026348        3.9017948542       18.8656450759
 Br        13.3558074072        2.5871389297       20.1791423806
 Zn         3.8631764410       14.7353747227       18.8776865697
 Br         2.5482980552       13.4222321068       20.1929644466
 Zn         3.8440267233        3.9215517722        8.0602907802
 Br         2.5317423769        2.6078228754        9.3781285680
 Zn         7.9978365531        8.0561853358        8.0561784318
 Br         9.3585385032        9.3469028986        9.3469022407
 Zn         8.0064915437       18.8763580623       18.8763557576
 Br         9.3246175332       20.1890211044       20.1890194201
 Zn        18.8129621055        8.0478907939       18.8716510809
 Br        20.1276941821        9.3610242382       20.1864830863
 Zn        18.8129677307       18.8716537345        8.0478932561
 Br        20.1276963025       20.1864841966        9.3610275139
 Zn        14.6714712049        8.0507244812       14.7247420134
 Br        13.3525357484        9.3648329300       13.4149959916
 Zn        14.6703067006       18.8656487639        3.9017955943
 Br        13.3558087867       20.1791447024        2.5871404003
 Zn         3.8440270223        8.0602957823        3.9215456207
 Br         2.5317354108        9.3781353087        2.6078170731
 Zn         3.8631733775       18.8776881909       14.7353684267
 Br         2.5482946153       20.1929665201       13.4222274730
 Zn         8.0013989807       14.7304877680       14.7304838692
 Br         9.3096145649       13.4130699929       13.4130681705
 Zn         7.9771522378        3.9116451613        3.9116359813
 Br         9.2886149455        2.5956282312        2.5956266161
 Zn        18.8177877272       14.7233297874        3.9066402060
 Br        20.1318139273       13.4083471559        2.5930321752
 Zn        18.8177869163        3.9066374930       14.7233257897
 Br        20.1318128773        2.5930294988       13.4083467993
 Zn         5.9210954124        5.9924803731       16.8112684852
 Zn        16.7593433579       16.7929536118       16.7929577825
 Zn        16.7285256668        5.9728947673        5.9728905165
 Zn         5.9211136137       16.8112706139        5.9924824603
 Zn         5.9110519641        5.9931936325        5.9931890742
 Zn        16.7421465065       16.7929937692        5.9732988839
 Zn         5.9395688003       16.8109836493       16.8109859717
 Zn        16.7421350363        5.9733010953       16.7929878851
  N         3.7374475501        5.9850474693       16.8082759257
  N        14.5497793323        5.9765640245        5.9765613094
  N        18.9395569592       16.7955155660       16.7955026071
  N         8.1084420440       16.8083468627        5.9939838313
  N        18.9172583780        5.9740417157        5.9740065131
  N         8.1084835950        5.9939973410       16.8083525393
  N         3.7374708720       16.8082701548        5.9850467251
  N        14.5693807229       16.7968450319       16.7968513992
  N        16.7321955846        3.7903098134        5.9756410258
  N        16.7533401629       14.6110872559       16.7950447189
  N        16.7552441955       18.9807143709       16.7951844417
  N        16.7350558132        8.1607961505        5.9749202283
  N         5.9222595198       18.9927268929        5.9912354775
  N         5.9195714326        8.1712714531       16.8007249535
  N         5.9251157300        3.8035845129       16.8084621830
  N         5.9245710115       14.6224624643        5.9823301312
  N         5.9251303879       16.8084629967        3.8035919763
  N         5.9245716075        5.9823368458       14.6224290388
  N        16.7552352202       16.7951857557       18.9807125922
  N        16.7350466806        5.9749346249        8.1607971226
  N         5.9222455793        5.9912509069       18.9927450227
  N         5.9195690138       16.8007167951        8.1712112230
  N        16.7322073980        5.9756563473        3.7903097655
  N        16.7533467820       16.7950450034       14.6110887531
  N         5.9112927205        3.8033624674        5.9893830514
  N         5.9332985591       14.6213688767       16.8055758235
  N        16.7413683065       18.9802089276        5.9745361609
  N        16.7429695105        8.1609798333       16.7972032732
  N         5.9364438754       18.9928044177       16.8061775185
  N         5.9177073316        8.1724677566        5.9936214380
  N        16.7433037599        3.7909355024       16.7935800578
  N        16.7442091234       14.6110230758        5.9782746590
  N         3.7501588010       16.8091970198       16.8091757447
  N        14.5585626636       16.7944304485        5.9751219402
  N        18.9274247900       16.7975073566        5.9762070885
  N         8.1188425838       16.8037743645       16.8037784301
  N        18.9274084318        5.9762041621       16.7975102539
  N         8.0995361948        5.9821808913        5.9821773432
  N         3.7277557991        5.9894303225        5.9893950575
  N        14.5585659450        5.9751304522       16.7944368487
  N        16.7413728789        5.9745457136       18.9802057164
  N        16.7429786783       16.7972058144        8.1609731581
  N        16.7432979398       16.7935875321        3.7909368333
  N        16.7442006580        5.9782808438       14.6110099079
  N         5.9112849367        5.9893996396        3.8033673538
  N         5.9332876792       16.8055705972       14.6213432210
  N         5.9364540139       16.8061814267       18.9928092137
  N         5.9177155625        5.9936314856        8.1724493678
  C        11.3413867661       15.7427900828       15.7428010330
  H        11.3397331650       14.9672808965       14.9672976363
  C        11.3229109610        4.9212640051        4.9212643550
  H        11.3218339550        4.1457900353        4.1457902275
  C         0.5157190846       15.7467362504        4.9218115914
  H         0.5190889728       14.9716604752        4.1458873823
  C         0.5157252228        4.9218005649       15.7467424639
  H         0.5190787026        4.1458697436       14.9716688671
  C        11.3345161192        7.0430226868       15.7449327924
  H        11.3355247625        7.8190588946       14.9699749563
  C        11.3330302492       17.8580337497        4.9258706135
  H        11.3322388945       18.6327544122        4.1495420875
  C         0.5026891976        7.0388590746        4.9238308746
  H         0.5026289455        7.8147081774        4.1486611899
  C         0.5247011428       17.8610525522       15.7461377888
  H         0.5247470716       18.6367029845       14.9707688886
  C        11.3345558987       15.7449173366        7.0430045517
  H        11.3355268248       14.9699497252        7.8190298079
  C        11.3329898307        4.9258903156       17.8580454476
  H        11.3322351346        4.1495692157       18.6327786318
  C         0.5246989408       15.7461426093       17.8610485310
  H         0.5247488363       14.9707740722       18.6366990187
  C         0.5026886966        4.9238356261        7.0388538219
  H         0.5026287695        4.1486679555        7.8147007684
  C        11.3267863333        7.0361645922        7.0361644431
  H        11.3268750529        7.8117027886        7.8117021512
  C        11.3461052729       17.8576979843       17.8577087094
  H        11.3480683240       18.6332042730       18.6332205241
  C         0.5090050163        7.0381399824       17.8605828110
  H         0.5059061274        7.8141480789       18.6356032809
  C         0.5089947414       17.8605762545        7.0381506559
  H         0.5059135735       18.6355915355        7.8141622623
  C        15.6910132714       11.3874846345       15.7383834831
  H        14.9156080733       11.3887843069       14.9627831648
  C        15.6781706066        0.5639482838        4.9181514658
  H        14.9023664856        0.5628312875        4.1429264609
  C         4.8582805866       11.3963789553        4.9355044253
  H         4.0768305621       11.3952977417        4.1659819851
  C         4.8744101547        0.5763960606       15.7493764388
  H         4.0989230707        0.5750561107       14.9738336937
  C        15.6829396940       11.3871609305        7.0348708986
  H        14.9076582948       11.3877571002        7.8106107805
  C        15.6917036607        0.5643368478       17.8516033252
  H        14.9164385389        0.5625131498       18.6273606544
  C         4.8689227014       11.3975765617       17.8605735731
  H         4.0952885805       11.3986347614       18.6379552878
  C         4.8603811936        0.5763856472        7.0496963455
  H         4.0861532970        0.5744470630        7.8264554830
  C         6.9794622226       11.3946513175       15.7409837507
  H         7.7532123960       11.3934345508       14.9637174205
  C         6.9720362254        0.5796026583        4.9313630003
  H         7.7462862665        0.5815346117        4.1545713856
  C        17.7974466453       11.3851653370        4.9192915310
  H        18.5726071898       11.3841700618        4.1434313557
  C        17.8059688404        0.5678567424       15.7357482149
  H        18.5811851978        0.5694595691       14.9599416750
  C         6.9919870823       11.3976728368        7.0316578881
  H         7.7757532786       11.3993449633        7.7986416377
  C         6.9885983198        0.5794652845       17.8650145189
  H         7.7637858243        0.5808843036       18.6408332925
  C        17.8058486826       11.3846898547       17.8536845493
  H        18.5814414004       11.3835348283       18.6291229303
  C        17.7932187322        0.5666715755        7.0332658488
  H        18.5687424313        0.5680487590        7.8087526904
  C        15.6910212030       15.7383801620       11.3874875997
  H        14.9156188920       14.9627766008       11.3887818384
  C        15.6781699333        4.9181504245        0.5639462574
  H        14.9023646140        4.1429251135        0.5628289019
  C         4.8744229631       15.7493728820        0.5763910211
  H         4.0989416137       14.9738271804        0.5750603019
  C         4.8582837267        4.9355029978       11.3963879480
  H         4.0768330526        4.1659791591       11.3952833160
  C         6.9794455850       15.7409671143       11.3946922963
  H         7.7531854705       14.9636933968       11.3934281174
  C         6.9720380642        4.9313712654        0.5795810349
  H         7.7462928063        4.1545799564        0.5815291622
  C        17.8059603937       15.7357427810        0.5678589663
  H        18.5811728183       14.9599328378        0.5694599598
  C        17.7974464082        4.9192947540       11.3851578785
  H        18.5726055646        4.1434372973       11.3841635478
  C        15.6829404148        7.0348737866       11.3871587779
  H        14.9076612225        7.8106140264       11.3877531720
  C        15.6916954724       17.8515972738        0.5643423967
  H        14.9164267784       18.6273510596        0.5625128481
  C         4.8603837216        7.0497056733        0.5763623854
  H         4.0861554583        7.8264705032        0.5744436528
  C         4.8689034288       17.8605597498       11.3976136716
  H         4.0952633139       18.6379291876       11.3986250524
  C         6.9919884797        7.0316559868       11.3976939892
  H         7.7757535288        7.7986389561       11.3993418361
  C         6.9886117294       17.8650107499        0.5794533120
  H         7.7638028407       18.6408250804        0.5808790245
  C        17.7932181190        7.0332673260        0.5666628017
  H        18.5687430004        7.8087568964        0.5680390141
  C        17.8058565039       17.8536814390       11.3846905252
  H        18.5814527893       18.6291168804       11.3835371245
 Kr         5.7633780755       10.4867771589       10.4867780920
