     409
 i =     176, E =    -5136.7107563457
  N         2.8625438254        5.2037937465       16.0241582081
  C         1.5444071498        5.4734728439       16.2934898206
  N        13.6774367124        5.2014074903        5.2014767819
  C        12.3597241528        5.4724949478        5.4725279161
  N        19.5482894102       17.5766211415       16.0203435903
  C        20.8661817770       17.3075049522       16.2917398000
  N         8.7239395337       17.5807799897        5.2052114502
  C        10.0418412371       17.3084819568        5.4735770994
  N        19.5394673906        5.1995021665        6.7559577470
  C        20.8573768829        5.4719480335        6.4877562465
  N         8.7237744529        5.2052373361       17.5807339536
  C        10.0417172059        5.4735877529       17.3084580462
  N         2.8606630797       17.5798583839        6.7611154154
  C         1.5431561977       17.3089234875        6.4896368684
  N        13.6872563731       17.5759870990       17.5760696907
  C        12.3692296453       17.3064327214       17.3064677539
  N        15.8304781592        3.0458927439        5.1997884206
  C        16.1006183768        1.7282823350        5.4697433722
  N        15.8407909361       13.8660075969       16.0181202966
  C        16.1105648817       12.5484138481       16.2878534395
  N        15.8407687252       19.7291023295       17.5758520036
  C        16.1095783086       21.0467398047       17.3050796018
  N        15.8364898394        8.9105670939        6.7597515597
  C        16.1087403407       10.2279638682        6.4914493847
  N         6.5688682944       19.7357606726        5.2058977143
  C         6.2977695387       21.0532360724        5.4754919827
  N         6.5705165473        8.9150530457       16.0241689462
  C         6.3019692078       10.2327379621       16.2949391490
  N         6.5705804678        3.0518753427       17.5829379676
  C         6.3031296267        1.7339858291       17.3119050598
  N         6.5683221261       13.8712420707        6.7612582970
  C         6.2985849593       12.5537661803        6.4906854541
  N         5.0169152841       16.0260171178        3.0505413906
  C         5.2885178349       16.2955287007        1.7331776989
  N         5.0154588355        5.2032908972       13.8718304609
  C         5.2844391485        5.4736325847       12.5540979234
  N        17.3939021794       16.0176803483       19.7295892668
  C        17.1237818856       16.2878447216       21.0471970849
  N        17.3892211973        5.2015735366        8.9098846144
  C        17.1225970301        5.4740589517       10.2275624029
  N         5.0139127823        6.7625336825       19.7351034763
  C         5.2825545791        6.4918057687       21.0527532323
  N         5.0164733577       17.5815786944        8.9158041661
  C         5.2874093534       17.3116927082       10.2331688319
  N        17.3839525177        6.7572442779        3.0462393405
  C        17.1149281115        6.4865471991        1.7285974116
  N        17.3957057211       17.5744083583       13.8656122299
  C        17.1257536565       17.3039106508       12.5480857515
  N         5.0105773622        3.0512119102        6.7613529805
  C         5.2807662263        1.7337326772        6.4912073112
  N         5.0198341513       13.8717971791       17.5821453151
  C         5.2889447028       12.5541004723       17.3119367906
  N        17.3872562040       19.7301426013        6.7557870862
  C        17.1166985678       21.0476380089        6.4858523764
  N        17.3906141824        8.9093476866       17.5764028853
  C        17.1231943018       10.2271243337       17.3049243057
  N         5.0212485454       19.7346824400       16.0252235095
  C         5.2908141532       21.0523272363       16.2951618467
  N         5.0123774294        8.9157316665        5.2042976411
  C         5.2830386790       10.2332066662        5.4740908179
  N        17.3900780040        3.0460454677       16.0168736467
  C        17.1217287157        1.7281842998       16.2874665932
  N        17.3930512642       13.8657727674        5.2028044578
  C        17.1244668889       12.5482625938        5.4745904334
  N         2.8660990601       16.0251230023       17.5813643722
  C         1.5483020426       16.2939793886       17.3096906830
  N        13.6821516625       16.0183875070        6.7557998160
  C        12.3641481819       16.2897260674        6.4865271676
  N        19.5445907081       16.0211248607        5.1998768680
  C        20.8622228415       16.2920001531        5.4713269115
  N         8.7273373433       16.0232283523       16.0231782958
  C        10.0457669180       16.2924429503       16.2924166597
  N        19.5425339459        6.7559668361       17.5777207129
  C        20.8607739466        6.4870884064       17.3077811929
  N         8.7206545042        6.7605732383        6.7605326374
  C        10.0383560715        6.4896081680        6.4895908169
  N         2.8574450094        6.7625874947        5.2060080435
  C         1.5396361593        6.4909543296        5.4751218630
  N        13.6820630968        6.7557565562       16.0184442102
  C        12.3640466260        6.4864964452       16.2897604168
  N        15.8342653819        5.1976939678       19.7295588365
  C        16.1024725628        5.4686605474       21.0473361221
  N        15.8366709469       16.0195713417        8.9103018793
  C        16.1084008448       16.2884969986       10.2277204979
  N        15.8369202582       17.5745657669        3.0451489918
  C        16.1076687101       17.3044430789        1.7276975832
  N        15.8394905296        6.7603094937       13.8663744557
  C        16.1101937602        6.4916089542       12.5487276842
  N         6.5645355767        5.2046280940        3.0517644471
  C         6.2955367314        5.4749279007        1.7340922973
  N         6.5731233382       16.0247578924       13.8712656633
  C         6.3033793455       16.2951834773       12.5536661410
  N         6.5765219949       17.5817235850       19.7352834568
  C         6.3061379172       17.3113699949       21.0528338838
  N         6.5660538276        6.7621421502        8.9153618739
  C         6.2973645891        6.4911196099       10.2328811060
  N        19.5426501633       17.5776746562        6.7560399485
  C        20.8608951534       17.3077840567        6.4871098339
  N         8.7297975001       17.5794307786       17.5793616428
  C        10.0472829100       17.3081976177       17.3081631759
  N         2.8574728140        5.2060578027        6.7625241027
  C         1.5396573299        5.4751465109        6.4909243303
  N        13.6819291833        5.1992669295       17.5748410168
  C        12.3640157600        5.4708137940       17.3056518404
  N         2.8660855152       17.5814200836       16.0250364694
  C         1.5482740001       17.3097256324       16.2939310914
  N        13.6820632829       17.5747815737        5.1993023213
  C        12.3641488052       17.3056153665        5.4708418494
  N        19.5444567292        5.1998058773       16.0211752760
  C        20.8621054086        5.4713073250       16.2919972581
  N         8.7190719614        5.2041869635        5.2041311218
  C        10.0372771422        5.4738412120        5.4738186756
  N         6.5764815423       19.7353626640       17.5816357733
  C         6.3060539963       21.0529062227       17.3113024603
  N         6.5660814758        8.9154399817        6.7620805585
  C         6.2974092855       10.2329425672        6.4910494688
  N         6.5645332235        3.0518634453        5.2045119986
  C         6.2955738670        1.7341631426        5.4748207574
  N         6.5730922761       13.8713459319       16.0247027758
  C         6.3033247711       12.5537264913       16.2951239967
  N        15.8367636374        3.0450498889       17.5746429807
  C        16.1075140456        1.7276114364       17.3045151768
  N        15.8395919395       13.8662889522        6.7603840832
  C        16.1102826043       12.5486647171        6.4916781975
  N        15.8343815985       19.7294546331        5.1977794822
  C        16.1025685704       21.0472483441        5.4687495721
  N        15.8365775110        8.9102244651       16.0196553642
  C        16.1083278278       10.2276527482       16.2885803067
  N        17.3871523590        6.7556907474       19.7302135583
  C        17.1166085587        6.4857572134       21.0477226482
  N        17.3907271817       17.5763102169        8.9094297237
  C        17.1232759382       17.3048348735       10.2272119469
  N         5.0105591886        6.7614537422        3.0511672250
  C         5.2807211084        6.4913072692        1.7336639932
  N         5.0198570765       17.5821916317       13.8717302036
  C         5.2889961787       17.3119931716       12.5540092272
  N        17.3902373187       16.0167953279        3.0461133272
  C        17.1218845285       16.2873943692        1.7282700333
  N        17.3929188534        5.2027155158       13.8658479372
  C        17.1243651333        5.4745119294       12.5483490790
  N         5.0212759758       16.0253244120       19.7346419574
  C         5.2908876461       16.2952402739       21.0522636034
  N         5.0123649754        5.2043603237        8.9156555054
  C         5.2829963676        5.4741610452       10.2331239829
  N        17.3938355031       19.7295235181       16.0177723059
  C        17.1236781863       21.0471158942       16.2879206230
  N        17.3892302120        8.9097928352        5.2016352524
  C        17.1226412369       10.2274802041        5.4741218276
  N         5.0167705742        3.0505900282       16.0259347929
  C         5.2883774424        1.7332444597       16.2954554830
  N         5.0155585571       13.8719241834        5.2032142432
  C         5.2845188808       12.5541783508        5.4735511073
  N        17.3839717748        3.0461638282        6.7573585212
  C        17.1149710707        1.7285175288        6.4866489092
  N        17.3957140208       13.8655305103       17.5744747881
  C        17.1257285508       12.5479972261       17.3039845800
  N         5.0140390090       19.7351710278        6.7624607318
  C         5.2826627743       21.0528104374        6.4917138558
  N         5.0163660632        8.9158877647       17.5815082852
  C         5.2873202890       10.2332442247       17.3116224003
  N        19.5394575550        6.7558951508        5.1995523709
  C        20.8573446307        6.4877265619        5.4719732918
  N         8.7237015303        6.7605293028       16.0233329696
  C        10.0416794165        6.4888225014       16.2921478230
  N         2.8605389827        6.7611913361       17.5797691888
  C         1.5430425400        6.4896865289       17.3088538481
  N        13.6791147176        6.7579253691        6.7579754283
  C        12.3607803550        6.4883049858        6.4883296328
  N         2.8626585684       16.0242662001        5.2037115461
  C         1.5445242273       16.2935671213        5.4734179774
  N        13.6855901656       16.0195877322       16.0196509838
  C        12.3679764278       16.2906701988       16.2906978214
  N        19.5483165206       16.0202922712       17.5766544518
  C        20.8662114463       16.2917261086       17.3075129939
  N         8.7237740033       16.0233806878        6.7604987923
  C        10.0417958521       16.2921717094        6.4888108160
  N         6.5707583657       17.5829878448        3.0517894929
  C         6.3032883636       17.3119601605        1.7339179580
  N         6.5682350220        6.7613344218       13.8711659673
  C         6.2985098825        6.4907643391       12.5536978535
  N         6.5687312043        5.2059773303       19.7356867021
  C         6.2976604735        5.4755845858       21.0531633788
  N         6.5706140244       16.0242359797        8.9149887449
  C         6.3020546981       16.2950084879       10.2326692590
  N        15.8408159371       17.5757465665       19.7292010581
  C        16.1096733915       17.3049978385       21.0468304837
  N        15.8364716788        6.7596920848        8.9106301089
  C        16.1086961570        6.4913877293       10.2280321853
  N        15.8304684531        5.1996717392        3.0459871080
  C        16.1005775979        5.4696410311        1.7283749592
  N        15.8407972319       16.0180501098       13.8660806444
  C        16.1105931252       16.2877787820       12.5484804813
 Zn        14.5483632167       14.7250024021       14.7250540341
 Br        13.2315097568       13.4118572708       13.4118992260
 Zn        14.5402959963        3.9059805139        3.9060773167
 Br        13.2218925075        2.5934299920        2.5935352677
 Zn         3.7265101495       14.7311498490        3.9079715832
 Br         2.4099963563       13.4180117302        2.5942821355
 Zn         3.7264196904        3.9080505144       14.7310365206
 Br         2.4098839785        2.5943868613       13.4178892990
 Zn         7.8593338007        8.0544452712       14.7288167945
 Br         9.1765973478        9.3674750741       13.4154981092
 Zn         7.8600194170       18.8759627561        3.9120485264
 Br         9.1770269828       20.1906887989        2.6000442237
 Zn        18.6757245538        8.0502190287        3.9047662812
 Br        19.9928801685        9.3628298875        2.5911222547
 Zn        18.6854699841       18.8701593607       14.7245524050
 Br        20.0020284723       20.1830855693       13.4106467242
 Zn         7.8594093771       14.7288637726        8.0544019365
 Br         9.1766503237       13.4155292553        9.3674398037
 Zn         7.8598321477        3.9121060601       18.8759191672
 Br         9.1768271519        2.6000829611       20.1906437975
 Zn        18.6855521055       14.7244811306       18.8701830536
 Br        20.0020793427       13.4105462001       20.1831053048
 Zn        18.6757534316        3.9047362018        8.0502990343
 Br        19.9928957697        2.5910954730        9.3629295051
 Zn        14.5442528969        8.0520796699        8.0521162919
 Br        13.2292649743        9.3663050751        9.3663360231
 Zn        14.5499249073       18.8704185552       18.8705285357
 Br        13.2345503947       20.1842828567       20.1844136980
 Zn         3.7238512978        8.0557000811       18.8737658657
 Br         2.4071133545        9.3700761907       20.1861930883
 Zn         3.7239576070       18.8738361888        8.0556390740
 Br         2.4072241772       20.1862976810        9.3699824388
 Zn        14.5459908512       14.7252562207        8.0516467859
 Br        13.2299394558       13.4119426383        9.3655941448
 Zn        14.5452150854        3.9035628917       18.8688070575
 Br        13.2282976981        2.5894223519       20.1811442373
 Zn         3.7290709621       14.7310522586       18.8753945162
 Br         2.4130421636       13.4183440547       20.1899635033
 Zn         3.7215615938        3.9104325292        8.0554212102
 Br         2.4047455860        2.5980369916        9.3698384585
 Zn         7.8570931434        8.0547594831        8.0547192208
 Br         9.1749081716        9.3676462021        9.3676158617
 Zn         7.8696330753       18.8742654606       18.8741836688
 Br         9.1856689728       20.1878765648       20.1877713586
 Zn        18.6779992683        8.0498728722       18.8722483944
 Br        19.9948932369        9.3623492365       20.1864522731
 Zn        18.6781039686       18.8721812568        8.0499545228
 Br        19.9950033262       20.1863636597        9.3624504686
 Zn        14.5459306266        8.0516003379       14.7253172488
 Br        13.2298951481        9.3655563631       13.4119908918
 Zn        14.5453491566       18.8687300399        3.9036113970
 Br        13.2284750712       20.1810880304        2.5894507855
 Zn         3.7215345338        8.0554891664        3.9104012360
 Br         2.4047525327        9.3699363714        2.5979966307
 Zn         3.7290563640       18.8754169284       14.7309388806
 Br         2.4130398087       20.1899919284       13.4182214771
 Zn         7.8622656672       14.7290078479       14.7289662659
 Br         9.1786491841       13.4154141771       13.4153877628
 Zn         7.8541980004        3.9099819136        3.9098740854
 Br         9.1704844429        2.5963890197        2.5962940986
 Zn        18.6817000061       14.7245505591        3.9064363947
 Br        19.9991337468       13.4105310502        2.5944686992
 Zn        18.6815357888        3.9063535352       14.7246216591
 Br        19.9989843167        2.5943640507       13.4106347806
 Zn         5.7912983003        5.9873943634       16.8071454241
 Zn        16.6148633716       16.7964301336       16.7966069914
 Zn        16.6086733905        5.9780622075        5.9782293336
 Zn         5.7913859744       16.8072574860        5.9872928859
 Zn         5.7884739643        5.9875592170        5.9874633604
 Zn        16.6114861639       16.7968783770        5.9769679704
 Zn         5.7950133499       16.8075076559       16.8074068198
 Zn        16.6113997629        5.9767973829       16.7970595549
  N         3.6081433213        5.9829398035       16.8024068635
  N        14.4246592332        5.9792570273        5.9793339020
  N        18.8016979289       16.7978127377       16.7978762785
  N         7.9773284390       16.8030815935        5.9838014391
  N        18.7929875771        5.9765967053        5.9766769826
  N         7.9772092362        5.9838252885       16.8030381278
  N         3.6082574907       16.8025221334        5.9828500291
  N        14.4328897426       16.7974090466       16.7975051261
  N        16.6069930597        3.7928971927        5.9787124768
  N        16.6181803054       14.6125534637       16.7965691831
  N        16.6175764194       18.9824181276       16.7969998254
  N        16.6112752434        8.1632904461        5.9794907329
  N         5.7926795822       18.9887487082        5.9850321375
  N         5.7933054881        8.1687266301       16.8030570397
  N         5.7930074080        3.7983593596       16.8045961178
  N         5.7925853501       14.6186625510        5.9819405111
  N         5.7931636129       16.8046582025        3.7982907680
  N         5.7924956938        5.9820205403       14.6185878586
  N        16.6176110761       16.7968869061       18.9825097675
  N        16.6112645661        5.9794433825        8.1633714968
  N         5.7925261135        5.9851167001       18.9886826377
  N         5.7934003743       16.8031345751        8.1686536394
  N        16.6070030850        5.9785997505        3.7929876399
  N        16.6181612675       16.7964998115       14.6126381211
  N         5.7879205716        3.7986822329        5.9834214651
  N         5.7969598331       14.6185828734       16.8037127388
  N        16.6114520034       18.9829241133        5.9764707165
  N        16.6124658283        8.1629041165       16.7987636302
  N         5.7992965096       18.9884555529       16.8033032003
  N         5.7893347960        8.1688033204        5.9830135506
  N        16.6127912004        3.7923179572       16.7956521617
  N        16.6155827644       14.6128063827        5.9806527266
  N         3.6126323051       16.8041192837       16.8040355471
  N        14.4284859316       16.7960732431        5.9769815045
  N        18.7971324923       16.7991249289        5.9773426928
  N         7.9820338140       16.8018804687       16.8018071147
  N        18.7970146385        5.9772428551       16.7992048687
  N         7.9733505218        5.9827254710        5.9826641978
  N         3.6041170087        5.9849552179        5.9848968621
  N        14.4283690351        5.9769206935       16.7961592492
  N        16.6113461861        5.9763901648       18.9830153579
  N        16.6125746705       16.7986662088        8.1629867355
  N        16.6129445953       16.7955714333        3.7924083332
  N        16.6154452217        5.9805757010       14.6128870526
  N         5.7879162303        5.9835441699        3.7986113100
  N         5.7969580280       16.8037709163       14.6185043783
  N         5.7993061353       16.8034082183       18.9883847769
  N         5.7893360993        5.9830732396        8.1687297872
  C        11.2060297561       15.7420767844       15.7420761590
  H        11.2048924182       14.9665777044       14.9665783899
  C        11.1979018106        4.9237657557        4.9237713271
  H        11.1969411495        4.1482664949        4.1482741345
  C         0.3841640345       15.7433819395        4.9229016411
  H         0.3855681225       14.9679647789        4.1473120160
  C         0.3840413038        4.9229261924       15.7433356853
  H         0.3854464768        4.1473403499       14.9679137415
  C        11.2028638236        7.0368514776       15.7412979641
  H        11.2028208887        7.8122131689       14.9656604893
  C        11.2030311009       17.8565774710        4.9228824999
  H        11.2030946477       18.6323761695        4.1476823805
  C         0.3784347595        7.0389370551        4.9242825538
  H         0.3783860219        7.8145595126        4.1488993966
  C         0.3872154645       17.8580918479       15.7433407424
  H         0.3873070532       18.6336917439       14.9679288801
  C        11.2029397804       15.7412925603        7.0368630323
  H        11.2028682892       14.9656551242        7.8122251279
  C        11.2028750353        4.9228743725       17.8565837125
  H        11.2029033024        4.1476751935       18.6323835942
  C         0.3872609154       15.7433609797       17.8580786738
  H         0.3873956317       14.9679521709       18.6336793416
  C         0.3784794892        4.9242818886        7.0389362260
  H         0.3784753654        4.1488982888        7.8145581808
  C        11.2001798137        7.0383584995        7.0383608287
  H        11.2009657877        7.8138589908        7.8138605099
  C        11.2090162487       17.8568131436       17.8568118351
  H        11.2103392122       18.6323182407       18.6323172152
  C         0.3810311026        7.0379958615       17.8575726724
  H         0.3797572649        7.8136619325       18.6329097866
  C         0.3811516207       17.8576133316        7.0379801213
  H         0.3798803965       18.6329505299        7.8136472407
  C        15.5601098884       11.3883577013       15.7378828425
  H        14.7847362535       11.3889088531       14.9622216580
  C        15.5523476393        0.5675272866        4.9188578479
  H        14.7775352903        0.5671470044        4.1426303418
  C         4.7346234097       11.3939455030        4.9233454223
  H         3.9597489166       11.3942431180        4.1471766734
  C         4.7401762600        0.5722927004       15.7451590238
  H         3.9647661099        0.5714965594       14.9695277471
  C        15.5608907187       11.3886184981        7.0426844214
  H        14.7858639083       11.3890542811        7.8187036134
  C        15.5594530766        0.5668429591       17.8552799156
  H        14.7846805594        0.5662759566       18.6315346356
  C         4.7389030463       11.3940197141       17.8621608296
  H         3.9639503070       11.3944256794       18.6382325825
  C         4.7320458843        0.5729602388        7.0414574515
  H         3.9568512401        0.5723995773        7.8173110005
  C         6.8520157359       11.3930099110       15.7447374382
  H         7.6269054980       11.3925191119       14.9685688941
  C         6.8460896358        0.5740560457        4.9249509745
  H         7.6213611334        0.5746268492        4.1491840485
  C        17.6730001134       11.3875622575        4.9240798770
  H        18.4471680213       11.3870348033        4.1472139141
  C        17.6717846469        0.5680106599       15.7371382403
  H        18.4463541864        0.5685758826       14.9606534589
  C         6.8471814116       11.3932013774        7.0413550798
  H         7.6218686119       11.3928490681        7.8177133492
  C         6.8541988883        0.5739761458       17.8616091451
  H         7.6292390654        0.5748769136       18.6376074868
  C        17.6742983188       11.3871797664       17.8543197296
  H        18.4494758214       11.3865838284       18.6301899979
  C        17.6649591687        0.5682877351        7.0367425581
  H        18.4398050894        0.5686643452        7.8129438145
  C        15.5601599493       15.7378051590       11.3884215096
  H        14.7847838710       14.9621468906       11.3889571650
  C        15.5522758648        4.9187632495        0.5676296626
  H        14.7774623998        4.1425360326        0.5672645097
  C         4.7402791647       15.7452386914        0.5722489540
  H         3.9648579552       14.9696188125        0.5714737778
  C         4.7345582511        4.9234236161       11.3938550730
  H         3.9596793325        4.1472579595       11.3941453857
  C         6.8520878926       15.7448028681       11.3929458232
  H         7.6269765847       14.9686343702       11.3924642985
  C         6.8460196301        4.9250523033        0.5739653208
  H         7.6212936531        4.1492875581        0.5745151687
  C        17.6719186995       15.7370704106        0.5680766314
  H        18.4464856674       14.9605838195        0.5686241596
  C        17.6729238647        4.9240046906       11.3876554105
  H        18.4470873429        4.1471342347       11.3871428402
  C        15.5608260967        7.0426216608       11.3886814143
  H        14.7858028559        7.8186438877       11.3891004984
  C        15.5595818724       17.8552042613        0.5669446639
  H        14.7848067631       18.6314561652        0.5663962276
  C         4.7319685439        7.0415534304        0.5729099486
  H         3.9567763625        7.8174083820        0.5723721725
  C         4.7389738212       17.8622286593       11.3939350209
  H         3.9640225836       18.6383023342       11.3943308130
  C         6.8471217511        7.0414305882       11.3931328385
  H         7.6218123412        7.8177860311       11.3927920795
  C         6.8543321570       17.8616596729        0.5738898464
  H         7.6293808715       18.6376498658        0.5747661376
  C        17.6648946221        7.0366427701        0.5683581543
  H        18.4397455974        7.8128381594        0.5687181556
  C        17.6743547289       17.8542363079       11.3872730522
  H        18.4495369197       18.6301038655       11.3866935032
 Kr        19.6772605696       10.5180404491       10.5181671437
