 DBCSR| CPU Multiplication driver                                           XSMM (U)
 DBCSR| Multrec recursion limit                                              512 (U)
 DBCSR| Multiplication stack size                                           1000 (D)
 DBCSR| Maximum elements for images                                    UNLIMITED (U)
 DBCSR| Multiplicative factor virtual images                                   1 (U)
 DBCSR| Use multiplication densification                                       T (D)
 DBCSR| Multiplication size stacks                                             3 (U)
 DBCSR| Use memory pool for CPU allocation                                     F (U)
 DBCSR| Number of 3D layers                                               SINGLE (U)
 DBCSR| Use MPI memory allocation                                              F (U)
 DBCSR| Use RMA algorithm                                                      F (U)
 DBCSR| Use Communication thread                                               T (U)
 DBCSR| Communication thread load                                             87 (D)
 DBCSR| MPI: My process id                                                     0
 DBCSR| MPI: Number of processes                                             144
 DBCSR| OMP: Current number of threads                                         1
 DBCSR| OMP: Max number of threads                                             1
 DBCSR| Split modifier for TAS multiplication algorithm                  1.0E+00 (U)


  **** **** ******  **  PROGRAM STARTED AT               2024-09-13 00:33:06.634
 ***** ** ***  *** **   PROGRAM STARTED ON                              nid02541
 **    ****   ******    PROGRAM STARTED BY                              bsertcan
 ***** **    ** ** **   PROGRAM PROCESS ID                                 14631
  **** **  *******  **  PROGRAM STARTED IN /scratch/snx3000/bsertcan/MFU_sp/cl/k
                                           r/rep45

 CP2K| version string:                 CP2K version 2024.2 (Development Version)
 CP2K| source code revision number:                                  git:42d1e6b
 CP2K| cp2kflags: omp libint fftw3 libxc parallel scalapack xsmm                
 CP2K| is freely available from                            https://www.cp2k.org/
 CP2K| Program compiled at                         Tue Sep  3 22:59:39 CEST 2024
 CP2K| Program compiled on                                              daint106
 CP2K| Program compiled for                                                local
 CP2K| Data directory path                             /users/bsertcan/cp2k/data
 CP2K| Input file name                                                 input.inp

 GLOBAL| Force Environment number                                              1
 GLOBAL| Basis set file name                                    BASIS_MOLOPT_UZH
 GLOBAL| Potential file name                                       POTENTIAL_UZH
 GLOBAL| MM Potential file name                                     MM_POTENTIAL
 GLOBAL| Coordinate file name                                         rep_45.xyz
 GLOBAL| Method name                                                        CP2K
 GLOBAL| Project name                                                 Replica_45
 GLOBAL| Run type                                                         ENERGY
 GLOBAL| FFT library                                                       FFTW3
 GLOBAL| Diagonalization library                                       ScaLAPACK
 GLOBAL| DGEMM library                                                      BLAS
 GLOBAL| Orthonormality check for eigenvectors                          DISABLED
 GLOBAL| Matrix multiplication library                                 ScaLAPACK
 GLOBAL| All-to-all communication in single precision                          F
 GLOBAL| FFTs using library dependent lengths                                  F
 GLOBAL| Grid backend                                                       AUTO
 GLOBAL| Global print level                                                  LOW
 GLOBAL| MPI I/O enabled                                                       T
 GLOBAL| Total number of message passing processes                           144
 GLOBAL| Number of threads for this process                                    1
 GLOBAL| This output is from process                                           0
 GLOBAL| Stack size for threads created by OpenMP (OMP_STACKSIZE)             5M
 GLOBAL| CPU model name                Intel(R) Xeon(R) CPU E5-2690 v3 @ 2.60GHz
 GLOBAL| CPUID                                                              1002

 MEMORY| system memory details [Kb]
 MEMORY|                        rank 0           min           max       average
 MEMORY| MemTotal             65740148      65740148      65740148      65740148
 MEMORY| MemFree              60855948      60854572      60925348      60895339
 MEMORY| Buffers                  8296          7680          9640          8636
 MEMORY| Cached                1879664       1829820       1879664       1847040
 MEMORY| Slab                   221372        216792        221372        218447
 MEMORY| SReclaimable            51772         50716         51772         51182
 MEMORY| MemLikelyFree        62795680      62756956      62817032      62802198


 *******************************************************************************
 *******************************************************************************
 **                                                                           **
 **     #####                         ##              ##                      **
 **    ##   ##            ##          ##              ##                      **
 **   ##     ##                       ##            ######                    **
 **   ##     ##  ##   ##  ##   #####  ##  ##   ####   ##    #####    #####    **
 **   ##     ##  ##   ##  ##  ##      ## ##   ##      ##   ##   ##  ##   ##   **
 **   ##  ## ##  ##   ##  ##  ##      ####     ###    ##   ######   ######    **
 **    ##  ###   ##   ##  ##  ##      ## ##      ##   ##   ##       ##        **
 **     #######   #####   ##   #####  ##  ##  ####    ##    #####   ##        **
 **           ##                                                    ##        **
 **                                                                           **
 **                                                ... make the atoms dance   **
 **                                                                           **
 **            Copyright (C) by CP2K developers group (2000-2024)             **
 **                      J. Chem. Phys. 152, 194103 (2020)                    **
 **                                                                           **
 *******************************************************************************


 TOTAL NUMBERS AND MAXIMUM NUMBERS

  Total number of            - Atomic kinds:                                   6
                             - Atoms:                                        409
                             - Shell sets:                                   409
                             - Shells:                                      3617
                             - Primitive Cartesian functions:               2052
                             - Cartesian basis functions:                  13634
                             - Spherical basis functions:                  11621

  Maximum angular momentum of- Orbital basis functions:                        3
                             - Local part of the GTH pseudopotential:          2
                             - Non-local part of the GTH pseudopotential:      4

  AUX_FIT ADMM-Basis: 
  Total number of            - Shell sets:                                  2799
                             - Shells:                                      2799
                             - Primitive Cartesian functions:               3609
                             - Cartesian basis functions:                   7546
                             - Spherical basis functions:                   6985
                               Maximum angular momentum                        3


 SCF PARAMETERS         Density guess:                                   RESTART
                        --------------------------------------------------------
                        max_scf:                                              10
                        max_scf_history:                                       0
                        max_diis:                                              4
                        --------------------------------------------------------
                        eps_scf:                                        1.00E-06
                        eps_scf_history:                                0.00E+00
                        eps_diis:                                       1.00E-01
                        eps_eigval:                                     1.00E-05
                        --------------------------------------------------------
                        level_shift [a.u.]:                             0.000000
                        --------------------------------------------------------
                        Outer loop SCF in use 
                        No variables optimised in outer loop
                        eps_scf                                         1.00E-06
                        max_scf                                               10
                        No outer loop optimization
                        step_size                                       5.00E-01

  HFX_INFO| Replica ID:                                                        1
  HFX_INFO| FRACTION:                                               0.2500000000
  HFX_INFO| Interaction Potential:                                     TRUNCATED
  HFX_INFO| Cutoff Radius [angstrom]:                               6.0000000000
  HFX_INFO| EPS_SCHWARZ:                                                 1.0E-08
  HFX_INFO| EPS_SCHWARZ_FORCES                                           1.0E-06
  HFX_INFO| EPS_STORAGE_SCALING:                                         1.0E+00
  HFX_INFO| NBINS:                                                            64
  HFX_INFO| BLOCK_SIZE:                                                        5
  HFX_INFO| NUMBER_OF_SHELLS:                                               AUTO
  HFX_INFO| Number of periodic shells considered:                             -1
  HFX_INFO| Number of periodic cells considered:                              27


 Number of electrons:                                                       2056
 Number of occupied orbitals:                                               1028
 Number of molecular orbitals:                                              1028

 Number of orbital functions:                                              11621
 Number of independent orbital functions:                                  11621

 Extrapolation method: initial_guess

 *** WARNING in qs_initial_guess.F:306 :: User requested to restart the   ***
 *** wavefunction from the file named: Replica_45-RESTART.wfn. This file  ***
 *** does not exist. Please check the existence of the file or change     ***
 *** properly the value of the keyword WFN_RESTART_FILE_NAME. Calculation ***
 *** continues using ATOMIC GUESS.                                        ***



 SCF WAVEFUNCTION OPTIMIZATION

  ----------------------------------- OT ---------------------------------------
  Minimizer      : DIIS                : direct inversion
                                         in the iterative subspace
                                         using   7 DIIS vectors
                                         safer DIIS on
  Preconditioner : FULL_SINGLE_INVERSE : inversion of 
                                         H + eS - 2*(Sc)(c^T*H*c+const)(Sc)^T
  Precond_solver : DEFAULT
  stepsize       :    0.08000000                  energy_gap     :    0.08000000
  eps_taylor     :   0.10000E-15                  max_taylor     :             4
  ----------------------------------- OT ---------------------------------------

  Step     Update method      Time    Convergence         Total energy    Change
  ------------------------------------------------------------------------------

  HFX_MEM_INFO| Est. max. program size before HFX [MiB]:                     452

 *** WARNING in hfx_energy_potential.F:587 :: The Kohn Sham matrix is not ***
 *** 100% occupied. This may result in incorrect Hartree-Fock results.    ***
 *** Setting MIN_PAIR_LIST_RADIUS to -1 in the QS section ensures a fully ***
 *** occupied KS matrix. For more information see FAQ:                    ***
 *** https://www.cp2k.org/faq:hfx_eps_warning                             ***

  HFX_MEM_INFO| Number of cart. primitive ERI's calculated:         565726515603
  HFX_MEM_INFO| Number of sph. ERI's calculated:                    305395024083
  HFX_MEM_INFO| Number of sph. ERI's stored in-core:                298077086012
  HFX_MEM_INFO| Number of sph. ERI's stored on disk:                           0
  HFX_MEM_INFO| Number of sph. ERI's calculated on the fly:                    0
  HFX_MEM_INFO| Total memory consumption ERI's RAM [MiB]:                 265156
  HFX_MEM_INFO| Whereof max-vals [MiB]:                                     4806
  HFX_MEM_INFO| Total compression factor ERI's RAM:                         8.58
  HFX_MEM_INFO| Total memory consumption ERI's disk [MiB]:                     0
  HFX_MEM_INFO| Total compression factor ERI's disk:                        0.00
  HFX_MEM_INFO| Size of density/Fock matrix [MiB]:                           152
  HFX_MEM_INFO| Size of buffers [MiB]:                                        79
  HFX_MEM_INFO| Number of periodic image cells considered:                    27
  HFX_MEM_INFO| Est. max. program size after HFX  [MiB]:                    2528

     1 OT DIIS     0.80E-01  226.2     0.01157412     -5008.0824686892 -5.01E+03
     2 OT DIIS     0.80E-01   35.5     0.00710843     -5087.0006325402 -7.89E+01
     3 OT DIIS     0.80E-01   35.6     0.00650867     -5125.9671221610 -3.90E+01
     4 OT DIIS     0.80E-01   35.5     0.00624763     -5148.0666717113 -2.21E+01
     5 OT DIIS     0.80E-01   35.5     0.00347925     -5186.8416487294 -3.88E+01
     6 OT DIIS     0.80E-01   35.6     0.00269152     -5199.5301697586 -1.27E+01
     7 OT DIIS     0.80E-01   35.5     0.00196793     -5209.3444193931 -9.81E+00
     8 OT DIIS     0.80E-01   35.6     0.00134125     -5216.1029187241 -6.76E+00
     9 OT DIIS     0.80E-01   35.5     0.00116240     -5218.4845845006 -2.38E+00
    10 OT DIIS     0.80E-01   35.7     0.00082247     -5221.3443209392 -2.86E+00

  Leaving inner SCF loop after reaching    10 steps.


  Electronic density on regular grids:      -2055.9999999830        0.0000000170
  Core density on regular grids:             2055.9999998536       -0.0000001464
  Total charge density on r-space grids:       -0.0000001294
  Total charge density g-space grids:          -0.0000001294

  Overlap energy of the core charge distribution:               0.00004693381896
  Self energy of the core charge distribution:              -9865.05654136270459
  Core Hamiltonian energy:                                   2923.39660205205428
  Hartree energy:                                            2792.61408145411770
  Exchange-correlation energy:                               -842.49004190566382
  Hartree-Fock Exchange energy:                              -228.98643235464152
  Dispersion energy:                                           -0.82203575613350

  Total energy:                                             -5221.34432093915166

  outer SCF iter =    1 RMS gradient =   0.82E-03 energy =      -5221.3443209392

  ----------------------------------- OT ---------------------------------------
  Minimizer      : DIIS                : direct inversion
                                         in the iterative subspace
                                         using   7 DIIS vectors
                                         safer DIIS on
  Preconditioner : FULL_SINGLE_INVERSE : inversion of 
                                         H + eS - 2*(Sc)(c^T*H*c+const)(Sc)^T
  Precond_solver : DEFAULT
  stepsize       :    0.08000000                  energy_gap     :    0.08000000
  eps_taylor     :   0.10000E-15                  max_taylor     :             4
  ----------------------------------- OT ---------------------------------------

  Step     Update method      Time    Convergence         Total energy    Change
  ------------------------------------------------------------------------------
     1 OT DIIS     0.80E-01   74.1     0.00131303     -5222.4933346630 -1.15E+00
     2 OT DIIS     0.80E-01   35.7     0.00115096     -5224.0276881642 -1.53E+00
     3 OT DIIS     0.80E-01   35.6     0.00072480     -5226.0917887880 -2.06E+00
     4 OT DIIS     0.80E-01   35.6     0.00054280     -5226.6722240777 -5.80E-01
     5 OT DIIS     0.80E-01   35.6     0.00045097     -5226.8980577779 -2.26E-01
     6 OT DIIS     0.80E-01   35.6     0.00031462     -5227.0519982531 -1.54E-01
     7 OT DIIS     0.80E-01   35.5     0.00021694     -5227.1434981250 -9.15E-02
     8 OT DIIS     0.80E-01   35.5     0.00014286     -5227.1814424102 -3.79E-02
     9 OT DIIS     0.80E-01   35.6     0.00010706     -5227.2024519263 -2.10E-02
    10 OT DIIS     0.80E-01   35.8     0.00007559     -5227.2071107468 -4.66E-03

  Leaving inner SCF loop after reaching    10 steps.


  Electronic density on regular grids:      -2055.9999999830        0.0000000170
  Core density on regular grids:             2055.9999998536       -0.0000001464
  Total charge density on r-space grids:       -0.0000001294
  Total charge density g-space grids:          -0.0000001294

  Overlap energy of the core charge distribution:               0.00004693381896
  Self energy of the core charge distribution:              -9865.05654136270459
  Core Hamiltonian energy:                                   2919.21879921440586
  Hartree energy:                                            2792.84072298595947
  Exchange-correlation energy:                               -842.79867403018090
  Hartree-Fock Exchange energy:                              -230.58942873198259
  Dispersion energy:                                           -0.82203575613350

  Total energy:                                             -5227.20711074681640

  outer SCF iter =    2 RMS gradient =   0.76E-04 energy =      -5227.2071107468

  ----------------------------------- OT ---------------------------------------
  Minimizer      : DIIS                : direct inversion
                                         in the iterative subspace
                                         using   7 DIIS vectors
                                         safer DIIS on
  Preconditioner : FULL_SINGLE_INVERSE : inversion of 
                                         H + eS - 2*(Sc)(c^T*H*c+const)(Sc)^T
  Precond_solver : DEFAULT
  stepsize       :    0.08000000                  energy_gap     :    0.08000000
  eps_taylor     :   0.10000E-15                  max_taylor     :             4
  ----------------------------------- OT ---------------------------------------

  Step     Update method      Time    Convergence         Total energy    Change
  ------------------------------------------------------------------------------
     1 OT DIIS     0.80E-01   74.0     0.00007180     -5227.2151409174 -8.03E-03
     2 OT DIIS     0.80E-01   35.4     0.00005234     -5227.2193332234 -4.19E-03
     3 OT DIIS     0.80E-01   35.5     0.00002671     -5227.2234552707 -4.12E-03
     4 OT DIIS     0.80E-01   35.4     0.00000899     -5227.2243303696 -8.75E-04
     5 OT DIIS     0.80E-01   35.4     0.00000552     -5227.2244130183 -8.26E-05
     6 OT DIIS     0.80E-01   35.4     0.00000216     -5227.2244589531 -4.59E-05
     7 OT DIIS     0.80E-01   35.4     0.00000117     -5227.2244646697 -5.72E-06
     8 OT DIIS     0.80E-01   35.4     0.00000062     -5227.2244663898 -1.72E-06

  *** SCF run converged in     8 steps ***


  Electronic density on regular grids:      -2056.0000000167       -0.0000000167
  Core density on regular grids:             2055.9999998536       -0.0000001464
  Total charge density on r-space grids:       -0.0000001631
  Total charge density g-space grids:          -0.0000001631

  Overlap energy of the core charge distribution:               0.00004693381896
  Self energy of the core charge distribution:              -9865.05654136270459
  Core Hamiltonian energy:                                   2919.23301308034524
  Hartree energy:                                            2792.81952001583932
  Exchange-correlation energy:                               -842.80208339651938
  Hartree-Fock Exchange energy:                              -230.59638590447065
  Dispersion energy:                                           -0.82203575613350

  Total energy:                                             -5227.22446638982365

  outer SCF iter =    3 RMS gradient =   0.62E-06 energy =      -5227.2244663898
  outer SCF loop converged in   3 iterations or   28 steps


 ENERGY| Total FORCE_EVAL ( QS ) energy [a.u.]:            -5227.224466389823647

 -------------------------------------------------------------------------------
 -                                                                             -
 -                                DBCSR STATISTICS                             -
 -                                                                             -
 -------------------------------------------------------------------------------
 COUNTER                                    TOTAL       BLAS       SMM       ACC
 flops    14 x     4 x     4               129024       0.0%    100.0%      0.0%     
 flops     4 x     4 x   976               187392       0.0%    100.0%      0.0%     
 flops    41 x     4 x     4               314880       0.0%    100.0%      0.0%     
 flops     4 x     4 x   974               374016       0.0%    100.0%      0.0%     
 flops     4 x     4 x   962               461760       0.0%    100.0%      0.0%     
 flops    29 x     4 x     4              1787328       0.0%    100.0%      0.0%     
 flops    14 x    32 x     4             16515072       0.0%    100.0%      0.0%     
 flops    14 x     4 x    32             16515072       0.0%    100.0%      0.0%     
 flops    32 x     4 x   976             23986176       0.0%    100.0%      0.0%     
 flops     4 x    32 x   976             23986176       0.0%    100.0%      0.0%     
 flops    41 x    32 x     4             40304640       0.0%    100.0%      0.0%     
 flops    41 x     4 x    32             40304640       0.0%    100.0%      0.0%     
 flops    32 x     4 x   974             47874048       0.0%    100.0%      0.0%     
 flops     4 x    32 x   974             47874048       0.0%    100.0%      0.0%     
 flops    32 x     4 x   962             59105280       0.0%    100.0%      0.0%     
 flops     4 x    32 x   962             59105280       0.0%    100.0%      0.0%     
 flops     6 x     6 x    68             69092352       0.0%    100.0%      0.0%     
 flops    31 x     6 x    68            101993472       0.0%    100.0%      0.0%     
 flops    14 x     4 x    14            105369600       0.0%    100.0%      0.0%     
 flops    68 x    68 x    68            133319168       0.0%    100.0%      0.0%     
 flops     6 x     6 x    64            195084288       0.0%    100.0%      0.0%     
 flops    29 x    32 x     4            228777984       0.0%    100.0%      0.0%     
 flops    29 x     4 x    32            228777984       0.0%    100.0%      0.0%     
 flops    31 x     6 x    64            287981568       0.0%    100.0%      0.0%     
 flops    41 x    14 x    68            370960128       0.0%    100.0%      0.0%     
 flops    64 x    68 x    68            376430592       0.0%    100.0%      0.0%     
 flops    68 x    64 x    68            376430592       0.0%    100.0%      0.0%     
 flops    68 x    68 x    64            376430592       0.0%    100.0%      0.0%     
 flops    14 x    14 x    68            483646464       0.0%    100.0%      0.0%     
 flops    41 x     4 x    14            493731840       0.0%    100.0%      0.0%     
 flops    14 x     4 x    41            493731840       0.0%    100.0%      0.0%     
 flops     6 x    31 x    68            713954304       0.0%    100.0%      0.0%     
 flops     6 x     6 x    96            780337152       0.0%    100.0%      0.0%     
 flops     6 x    17 x    68            870051840       0.0%    100.0%      0.0%     
 flops    41 x    14 x    64           1047416832       0.0%    100.0%      0.0%     
 flops    17 x     6 x    68           1049500032       0.0%    100.0%      0.0%     
 flops    64 x    64 x    68           1062862848       0.0%    100.0%      0.0%     
 flops    64 x    68 x    64           1062862848       0.0%    100.0%      0.0%     
 flops    68 x    64 x    64           1062862848       0.0%    100.0%      0.0%     
 flops    31 x     6 x    96           1151926272       0.0%    100.0%      0.0%     
 flops   963 x    68 x    68           1193380416       0.0%    100.0%      0.0%     
 flops    14 x    14 x    64           1365590016       0.0%    100.0%      0.0%     
 flops    41 x     4 x    41           1498645120       0.0%    100.0%      0.0%     
 flops    68 x    68 x    96           1505722368       0.0%    100.0%      0.0%     
 flops    68 x    96 x    68           1505722368       0.0%    100.0%      0.0%     
 flops    96 x    68 x    68           1505722368       0.0%    100.0%      0.0%     
 flops    14 x     4 x    29           1629261760       0.0%    100.0%      0.0%     
 flops    29 x     4 x    14           1629261760       0.0%    100.0%      0.0%     
 flops    68 x    68 x   976           1967678464       0.0%    100.0%      0.0%     
 flops     6 x    31 x    64           2015870976       0.0%    100.0%      0.0%     
 flops   976 x    68 x    68           2418980864       0.0%    100.0%      0.0%     
 flops     6 x    17 x    64           2456616960       0.0%    100.0%      0.0%     
 flops    31 x    31 x    68           2473813888       0.0%    100.0%      0.0%     
 flops    17 x     6 x    64           2963294208       0.0%    100.0%      0.0%     
 flops    64 x    64 x    64           3001024512       0.0%    100.0%      0.0%     
 flops   963 x    64 x    68           3369544704       0.0%    100.0%      0.0%     
 flops   963 x    68 x    64           3369544704       0.0%    100.0%      0.0%     
 flops    14 x    41 x    68           3555971328       0.0%    100.0%      0.0%     
 flops    68 x    68 x   974           3927292672       0.0%    100.0%      0.0%     
 flops    41 x    14 x    96           4189667328       0.0%    100.0%      0.0%     
 flops    64 x    68 x    96           4251451392       0.0%    100.0%      0.0%     
 flops    64 x    96 x    68           4251451392       0.0%    100.0%      0.0%     
 flops    68 x    64 x    96           4251451392       0.0%    100.0%      0.0%     
 flops    68 x    96 x    64           4251451392       0.0%    100.0%      0.0%     
 flops    96 x    64 x    68           4251451392       0.0%    100.0%      0.0%     
 flops    96 x    68 x    64           4251451392       0.0%    100.0%      0.0%     
 flops    14 x    32 x    32           4359979008       0.0%    100.0%      0.0%     
 flops   974 x    68 x    68           4828047872       0.0%    100.0%      0.0%     
 flops    68 x    68 x   962           4848633920       0.0%    100.0%      0.0%     
 flops    14 x    14 x    96           5462360064       0.0%    100.0%      0.0%     
 flops    64 x    68 x   976           5555798016       0.0%    100.0%      0.0%     
 flops    68 x    64 x   976           5555798016       0.0%    100.0%      0.0%     
 flops   962 x    68 x    68           5960705920       0.0%    100.0%      0.0%     
 flops    41 x    41 x    68           5972364384       0.0%    100.0%      0.0%     
 flops    14 x    29 x    68           6029587200       0.0%    100.0%      0.0%     
 flops    32 x    32 x   976           6332350464       0.0%    100.0%      0.0%     
 flops   976 x    64 x    68           6830063616       0.0%    100.0%      0.0%     
 flops   976 x    68 x    64           6830063616       0.0%    100.0%      0.0%     
 flops    17 x    31 x    68           6969671968       0.0%    100.0%      0.0%     
 flops    31 x    31 x    64           6984886272       0.0%    100.0%      0.0%     
 flops   963 x    68 x   976           7925135616       0.0%    100.0%      0.0%     
 flops    41 x     4 x    29           7973434000       0.0%    100.0%      0.0%     
 flops    29 x     4 x    41           7973434000       0.0%    100.0%      0.0%     
 flops    29 x    14 x    68           7997375008       0.0%    100.0%      0.0%     
 flops     6 x    31 x    96           8063483904       0.0%    100.0%      0.0%     
 flops    31 x    17 x    68           9253428576       0.0%    100.0%      0.0%     
 flops   963 x    64 x    64           9514008576       0.0%    100.0%      0.0%     
 flops     6 x    17 x    96           9826467840       0.0%    100.0%      0.0%     
 flops    14 x    41 x    64          10040389632       0.0%    100.0%      0.0%     
 flops    41 x    32 x    32          10640424960       0.0%    100.0%      0.0%     
 flops    64 x    68 x   974          11088826368       0.0%    100.0%      0.0%     
 flops    68 x    64 x   974          11088826368       0.0%    100.0%      0.0%     
 flops    17 x     6 x    96          11853176832       0.0%    100.0%      0.0%     
 flops    64 x    64 x    96          12004098048       0.0%    100.0%      0.0%     
 flops    64 x    96 x    64          12004098048       0.0%    100.0%      0.0%     
 flops    96 x    64 x    64          12004098048       0.0%    100.0%      0.0%     
 flops    32 x    32 x   974          12638748672       0.0%    100.0%      0.0%     
 flops   963 x    68 x    96          13478178816       0.0%    100.0%      0.0%     
 flops   963 x    96 x    68          13478178816       0.0%    100.0%      0.0%     
 flops   974 x    64 x    68          13632135168       0.0%    100.0%      0.0%     
 flops   974 x    68 x    64          13632135168       0.0%    100.0%      0.0%     
 flops    64 x    68 x   962          13690260480       0.0%    100.0%      0.0%     
 flops    68 x    64 x   962          13690260480       0.0%    100.0%      0.0%     
 flops    32 x    32 x   962          15603793920       0.0%    100.0%      0.0%     
 flops    64 x    64 x   976          15686959104       0.0%    100.0%      0.0%     
 flops   963 x    68 x   974          15817791168       0.0%    100.0%      0.0%     
 flops   976 x    68 x   976          16064241664       0.0%    100.0%      0.0%     
 flops   962 x    64 x    68          16830228480       0.0%    100.0%      0.0%     
 flops   962 x    68 x    64          16830228480       0.0%    100.0%      0.0%     
 flops    41 x    41 x    64          16863146496       0.0%    100.0%      0.0%     
 flops    17 x    17 x    68          16900562784       0.0%    100.0%      0.0%     
 flops    96 x    96 x    68          17005805568       0.0%    100.0%      0.0%     
 flops    68 x    96 x    96          17005805568       0.0%    100.0%      0.0%     
 flops    96 x    68 x    96          17005805568       0.0%    100.0%      0.0%     
 flops    14 x    29 x    64          17024716800       0.0%    100.0%      0.0%     
 flops   976 x    64 x    64          19284885504       0.0%    100.0%      0.0%     
 flops   963 x    68 x   962          19528638480       0.0%    100.0%      0.0%     
 flops    17 x    31 x    64          19679073792       0.0%    100.0%      0.0%     
 flops    68 x    96 x   976          22223192064       0.0%    100.0%      0.0%     
 flops    96 x    68 x   976          22223192064       0.0%    100.0%      0.0%     
 flops   963 x    64 x   976          22376853504       0.0%    100.0%      0.0%     
 flops    29 x    14 x    64          22580823552       0.0%    100.0%      0.0%     
 flops    31 x    17 x    64          26127327744       0.0%    100.0%      0.0%     
 flops    29 x    41 x    68          26540639224       0.0%    100.0%      0.0%     
 flops    14 x    32 x    14          26974617600       0.0%    100.0%      0.0%     
 flops   976 x    68 x    96          27320254464       0.0%    100.0%      0.0%     
 flops   976 x    96 x    68          27320254464       0.0%    100.0%      0.0%     
 flops    31 x    31 x    96          27939545088       0.0%    100.0%      0.0%     
 flops    29 x     4 x    29          28491667120       0.0%    100.0%      0.0%     
 flops    64 x    64 x   974          31309627392       0.0%    100.0%      0.0%     
 flops   976 x    68 x   974          32062646272       0.0%    100.0%      0.0%     
 flops   974 x    68 x   976          32062646272       0.0%    100.0%      0.0%     
 flops    41 x    29 x    68          35843955456       0.0%    100.0%      0.0%     
 flops   963 x    64 x    96          38056034304       0.0%    100.0%      0.0%     
 flops   963 x    96 x    64          38056034304       0.0%    100.0%      0.0%     
 flops   974 x    64 x    64          38490734592       0.0%    100.0%      0.0%     
 flops    64 x    64 x   962          38654853120       0.0%    100.0%      0.0%     
 flops   976 x    68 x   962          39584529920       0.0%    100.0%      0.0%     
 flops   962 x    68 x   976          39584529920       0.0%    100.0%      0.0%     
 flops    14 x    41 x    96          40161558528       0.0%    100.0%      0.0%     
 flops    68 x    96 x   974          44355305472       0.0%    100.0%      0.0%     
 flops    96 x    68 x   974          44355305472       0.0%    100.0%      0.0%     
 flops   963 x    64 x   974          44661998592       0.0%    100.0%      0.0%     
 flops   976 x    64 x   976          45357858816       0.0%    100.0%      0.0%     
 flops   962 x    64 x    64          47520645120       0.0%    100.0%      0.0%     
 flops    17 x    17 x    64          47719236096       0.0%    100.0%      0.0%     
 flops    96 x    96 x    64          48016392192       0.0%    100.0%      0.0%     
 flops    64 x    96 x    96          48016392192       0.0%    100.0%      0.0%     
 flops    96 x    64 x    96          48016392192       0.0%    100.0%      0.0%     
 flops   974 x    96 x    68          54528540672       0.0%    100.0%      0.0%     
 flops   974 x    68 x    96          54528540672       0.0%    100.0%      0.0%     
 flops    68 x    96 x   962          54761041920       0.0%    100.0%      0.0%     
 flops    96 x    68 x   962          54761041920       0.0%    100.0%      0.0%     
 flops   963 x    64 x   962          55139685120       0.0%    100.0%      0.0%     
 flops    29 x    32 x    32          60397387776       0.0%    100.0%      0.0%     
 flops    64 x    96 x   976          62747836416       0.0%    100.0%      0.0%     
 flops    96 x    64 x   976          62747836416       0.0%    100.0%      0.0%     
 flops   974 x    68 x   974          63993888256       0.0%    100.0%      0.0%     
 flops   962 x    68 x    96          67320913920       0.0%    100.0%      0.0%     
 flops   962 x    96 x    68          67320913920       0.0%    100.0%      0.0%     
 flops    41 x    41 x    96          67452585984       0.0%    100.0%      0.0%     
 flops    14 x    29 x    96          68098867200       0.0%    100.0%      0.0%     
 flops    29 x    41 x    64          74938275456       0.0%    100.0%      0.0%     
 flops   976 x    64 x    96          77139542016       0.0%    100.0%      0.0%     
 flops   976 x    96 x    64          77139542016       0.0%    100.0%      0.0%     
 flops    17 x    31 x    96          78716295168       0.0%    100.0%      0.0%     
 flops   962 x    68 x   974          79006828160       0.0%    100.0%      0.0%     
 flops   974 x    68 x   962          79006828160       0.0%    100.0%      0.0%     
 flops   963 x    96 x   976          89507414016       0.0%    100.0%      0.0%     
 flops    29 x    14 x    96          90323294208       0.0%    100.0%      0.0%     
 flops   976 x    64 x   974          90529824768       0.0%    100.0%      0.0%     
 flops   974 x    64 x   976          90529824768       0.0%    100.0%      0.0%     
 flops   962 x    68 x   962          97541797600       0.0%    100.0%      0.0%     
 flops    41 x    29 x    64         101206462464       0.0%    100.0%      0.0%     
 flops    31 x    17 x    96         104509310976       0.0%    100.0%      0.0%     
 flops   976 x    64 x   962         111768084480       0.0%    100.0%      0.0%     
 flops   962 x    64 x   976         111768084480       0.0%    100.0%      0.0%     
 flops    29 x    29 x    68         118596931904       0.0%    100.0%      0.0%     
 flops    64 x    96 x   974         125238509568       0.0%    100.0%      0.0%     
 flops    96 x    64 x   974         125238509568       0.0%    100.0%      0.0%     
 flops    41 x    32 x    14         126395351040       0.0%    100.0%      0.0%     
 flops    14 x    32 x    41         126395351040       0.0%    100.0%      0.0%     
 flops   963 x    96 x    96         152224137216       0.0%    100.0%      0.0%     
 flops   974 x    96 x    64         153962938368       0.0%    100.0%      0.0%     
 flops   974 x    64 x    96         153962938368       0.0%    100.0%      0.0%     
 flops    64 x    96 x   962         154619412480       0.0%    100.0%      0.0%     
 flops    96 x    64 x   962         154619412480       0.0%    100.0%      0.0%     
 flops   963 x    96 x   974         178647994368       0.0%    100.0%      0.0%     
 flops   974 x    64 x   974         180688625664       0.0%    100.0%      0.0%     
 flops   976 x    96 x   976         181431435264       0.0%    100.0%      0.0%     
 flops   962 x    64 x    96         190082580480       0.0%    100.0%      0.0%     
 flops   962 x    96 x    64         190082580480       0.0%    100.0%      0.0%     
 flops    17 x    17 x    96         190876944384       0.0%    100.0%      0.0%     
 flops    96 x    96 x    96         192065568768       0.0%    100.0%      0.0%     
 flops   963 x    96 x   962         220558740480       0.0%    100.0%      0.0%     
 flops   962 x    64 x   974         223078103040       0.0%    100.0%      0.0%     
 flops   974 x    64 x   962         223078103040       0.0%    100.0%      0.0%     
 flops    96 x    96 x   976         250991345664       0.0%    100.0%      0.0%     
 flops   962 x    64 x   962         275412134400       0.0%    100.0%      0.0%     
 flops    29 x    41 x    96         299753101824       0.0%    100.0%      0.0%     
 flops   976 x    96 x    96         308558168064       0.0%    100.0%      0.0%     
 flops    29 x    29 x    64         334861925376       0.0%    100.0%      0.0%     
 flops   974 x    96 x   976         362119299072       0.0%    100.0%      0.0%     
 flops   976 x    96 x   974         362119299072       0.0%    100.0%      0.0%     
 flops    41 x    32 x    41         383653150720       0.0%    100.0%      0.0%     
 flops    41 x    29 x    96         404825849856       0.0%    100.0%      0.0%     
 flops    14 x    32 x    29         417091010560       0.0%    100.0%      0.0%     
 flops    29 x    32 x    14         417091010560       0.0%    100.0%      0.0%     
 flops   976 x    96 x   962         447072337920       0.0%    100.0%      0.0%     
 flops   962 x    96 x   976         447072337920       0.0%    100.0%      0.0%     
 flops    96 x    96 x   974         500954038272       0.0%    100.0%      0.0%     
 flops   974 x    96 x    96         615851753472       0.0%    100.0%      0.0%     
 flops    96 x    96 x   962         618477649920       0.0%    100.0%      0.0%     
 flops   974 x    96 x   974         722754502656       0.0%    100.0%      0.0%     
 flops   962 x    96 x    96         760330321920       0.0%    100.0%      0.0%     
 flops   974 x    96 x   962         892312412160       0.0%    100.0%      0.0%     
 flops   962 x    96 x   974         892312412160       0.0%    100.0%      0.0%     
 flops   962 x    96 x   962        1101648537600       0.0%    100.0%      0.0%     
 flops    29 x    29 x    96        1339447701504       0.0%    100.0%      0.0%     
 flops    41 x    32 x    29        2041199104000       0.0%    100.0%      0.0%     
 flops    29 x    32 x    41        2041199104000       0.0%    100.0%      0.0%     
 flops    29 x    32 x    29        7293866782720       0.0%    100.0%      0.0%     
 flops inhomo. stacks                951113709952     100.0%      0.0%      0.0%
 flops total                        31.773065E+12       3.0%     97.0%      0.0%
 flops max/rank                    254.579462E+09       3.0%     97.0%      0.0%
 matmuls inhomo. stacks                     21843     100.0%      0.0%      0.0%
 matmuls total                          274983576       0.0%    100.0%      0.0%
 number of processed stacks               2982933       0.7%     99.3%      0.0%
 average stack size                                     1.1      92.8       0.0
 marketing flops                    46.461119E+12
 -------------------------------------------------------------------------------
 # multiplications                            628
 max memory usage/rank               2.580144E+09
 # max total images/rank                        1
 # max 3D layers                                1
 # MPI messages exchanged                 1989504
 MPI messages size (bytes):
  total size                         1.565272E+12
  min size                           0.000000E+00
  max size                           7.620608E+06
  average size                     786.765188E+03
 MPI breakdown and total messages size (bytes):
             size <=      128               13860                        0
       128 < size <=     8192                   0                        0
      8192 < size <=    32768               55935               1828556928
     32768 < size <=   131072              833085              50351410560
    131072 < size <=  4194304              926640             591514152416
   4194304 < size <= 16777216              159984             921583872088
  16777216 < size                               0                        0
 -------------------------------------------------------------------------------
 -                                                                             -
 -                      DBCSR MESSAGE PASSING PERFORMANCE                      -
 -                                                                             -
 -------------------------------------------------------------------------------
 ROUTINE             CALLS      AVE VOLUME [Bytes]
 MP_Bcast              223                     12.
 MP_Allreduce         3794                     32.
 MP_Alltoall          4077                 315432.
 MP_ISend            30132                 372020.
 MP_IRecv            30132                 369466.
 -------------------------------------------------------------------------------

 -------------------------------------------------------------------------------
 -                                                                             -
 -                                DBM STATISTICS                               -
 -                                                                             -
 -------------------------------------------------------------------------------
    M  x    N  x    K                                          COUNT     PERCENT
 -------------------------------------------------------------------------------

 -------------------------------------------------------------------------------
 -                                                                             -
 -                                GRID STATISTICS                              -
 -                                                                             -
 -------------------------------------------------------------------------------
 LP    KERNEL             BACKEND                              COUNT     PERCENT
 6     collocate ortho    CPU                                7636671      16.36%
 6     integrate ortho    CPU                                7373492      15.79%
 1     collocate ortho    CPU                                5411392      11.59%
 1     integrate ortho    CPU                                5411392      11.59%
 2     collocate ortho    CPU                                4217640       9.03%
 2     integrate ortho    CPU                                4217640       9.03%
 0     collocate ortho    CPU                                2610692       5.59%
 0     integrate ortho    CPU                                2610692       5.59%
 3     collocate ortho    CPU                                1690612       3.62%
 3     integrate ortho    CPU                                1690612       3.62%
 5     collocate ortho    CPU                                1429897       3.06%
 5     integrate ortho    CPU                                1382668       2.96%
 4     collocate ortho    CPU                                 472324       1.01%
 4     integrate ortho    CPU                                 469252       1.01%
 0     collocate general  CPU                                  58896       0.13%
 -------------------------------------------------------------------------------

 MEMORY| Estimated peak process memory [MiB]                                2615

 -------------------------------------------------------------------------------
 -                                                                             -
 -                         MESSAGE PASSING PERFORMANCE                         -
 -                                                                             -
 -------------------------------------------------------------------------------

 ROUTINE             CALLS      AVE VOLUME [Bytes]
 MP_Group                4
 MP_Bcast             3520                4188949.
 MP_Allreduce         7886                   2478.
 MP_Sync               167
 MP_Alltoall          1299                7475018.
 MP_SendRecv         16302                  44208.
 MP_ISendRecv        24310                 265434.
 MP_Wait             34752
 MP_comm_split          20
 MP_ISend             9534                 254491.
 MP_IRecv             9534                 254448.
 -------------------------------------------------------------------------------


 -------------------------------------------------------------------------------
 -                                                                             -
 -                           R E F E R E N C E S                               -
 -                                                                             -
 -------------------------------------------------------------------------------
 
 CP2K version 2024.2 (Development Version), the CP2K developers group (2024).
 CP2K is freely available from https://www.cp2k.org/ .
 
 T. D. Kuehne, M. Iannuzzi, M. Del Ben, V. V. Rybkin, P. Seewald, F. Stein, T. 
 Laino, R. Z. Khaliullin, O. Schuett, F. Schiffmann, D. Golze, J. Wilhelm, S. 
 Chulkov, M. H. Bani-Hashemian, V. Weber, U. Borstnik, M. Taillefumier, A. S. 
 Jakobovits, A. Lazzaro, H. Pabst, T. Mueller, R. Schade, M. Guidon, S. 
 Andermatt, N. Holmberg, G. K. Schenter, A. Hehn, A. Bussy, F. Belleflamme, G. 
 Tabacchi, A. Gloess, M. Lass, I. Bethune, C. J. Mundy, C. Plessl, M. Watkins, 
 J. VandeVondele, M. Krack, J. Hutter.
 J. Chem. Phys. 152, 194103 (2020).
 CP2K: An electronic structure and molecular dynamics software package - 
 Quickstep: Efficient and accurate electronic structure calculations.
 https://doi.org/10.1063/5.0007045

 S. Lehtola, C. Steigemann, M. J. T. Oliveira, M. A. L. Marques.
 SoftwareX 7, 1-5 (2018).
 Recent developments in libxc - A comprehensive library of functionals for 
 density functional theory.
 https://doi.org/10.1016/j.softx.2017.11.002

 L. Goerigk, A. Hansen, C. Bauer, S. Ehrlich, A. Najibi, S. Grimme.
 Phys. Chem. Chem. Phys. 19, 32184-32215 (2017).
 A look at the density functional theory zoo with the advanced GMTKN55 database 
 for general main group thermochemistry, kinetics and noncovalent interactions.
 https://doi.org/10.1039/C7CP04913G

 O. Schuett, P. Messmer, J. Hutter, J. VandeVondele.
 Electronic Structure Calculations on Graphics Processing Units, 173-190 (2016).
 GPU-Accelerated Sparse Matrix-Matrix Multiplication for Linear Scaling Density 
 Functional Theory.
 https://doi.org/10.1002/9781118670712.ch8

 A. Heinecke, G. Henry, M. Hutchinson, H. Pabst.
 Proceedings of Intl. Supercomputing Conference, 981-991 (2016).
 LIBXSMM: Accelerating Small Matrix Multiplications by Runtime Code Generation.
 https://doi.org/10.1109/SC.2016.83

 J. Hutter, M. Iannuzzi, F. Schiffmann, J. VandeVondele.
 WIREs Comput Mol Sci. 4, 15-25 (2014).
 CP2K: atomistic simulations of condensed matter systems.
 https://doi.org/10.1002/wcms.1159

 U. Borstnik, J. VandeVondele, V. Weber, J. Hutter.
 Parallel Comput. 40, 47-58 (2014).
 Sparse matrix multiplication: The distributed block-compressed sparse row 
 library.
 https://doi.org/10.1016/j.parco.2014.03.012

 M. A. L. Marques, M. J. T. Oliveira, T. Burnus.
 Comput. Phys. Commun. 183, 2272-2281 (2012).
 LIBXC: A library of exchange and correlation functionals for density functional 
 theory.
 https://doi.org/10.1016/j.cpc.2012.05.007

 S. Grimme, S. Ehrlich, L. Goerigk.
 J. Comput. Chem. 32, 1456 (2011).
 Effect of the damping function in dispersion corrected density functional 
 theory.
 https://doi.org/10.1002/jcc.21759

 S. Grimme, J. Antony, S. Ehrlich, H. Krieg.
 J. Chem. Phys. 132, 154104 (2010).
 A consistent and accurate ab initio parametrization of density functional 
 dispersion correction (DFT-D) for the 94 elements H-Pu.
 https://doi.org/10.1063/1.3382344

 M. Guidon, J. Hutter, J. VandeVondele.
 J. Chem. Theory Comput. 6, 2348-2364 (2010).
 Auxiliary Density Matrix Methods for Hartree-Fock Exchange Calculations.
 https://doi.org/10.1021/ct1002225

 M. Guidon, J. Hutter, J. VandeVondele.
 J. Chem. Theory Comput. 5, 3010-3021 (2009).
 Robust Periodic Hartree-Fock Exchange for Large-Scale Simulations Using 
 Gaussian Basis Sets.
 https://doi.org/10.1021/ct900494g

 M. Guidon, F. Schiffmann, J. Hutter, J. VandeVondele.
 J. Chem. Phys. 128, 214104 (2008).
 Ab initio molecular dynamics using hybrid density functionals.
 https://doi.org/10.1063/1.2931945

 J. VandeVondele, J. Hutter.
 J. Chem. Phys. 127, 114105 (2007).
 Gaussian basis sets for accurate calculations on molecular systems in gas and 
 condensed phases.
 https://doi.org/10.1063/1.2770708

 J. VandeVondele, M. Krack, F. Mohamed, M. Parrinello, T. Chassaing, J. Hutter.
 Comput. Phys. Commun. 167, 103-128 (2005).
 QUICKSTEP: Fast and accurate density functional calculations using a mixed 
 Gaussian and plane waves approach.
 https://doi.org/10.1016/j.cpc.2004.12.014

 M. Krack.
 Theor. Chem. Acc. 114, 145-152 (2005).
 Pseudopotentials for H to Kr optimized for gradient-corrected 
 exchange-correlation functionals.
 https://doi.org/10.1007/s00214-005-0655-y

 M. Frigo, S. G. Johnson.
 Proc. IEEE 93, 216-231 (2005).
 The design and implementation of FFTW3.
 https://doi.org/10.1109/JPROC.2004.840301

 J. VandeVondele, J. Hutter.
 J. Chem. Phys. 118, 4365-4369 (2003).
 An efficient orbital transformation method for electronic structure 
 calculations.
 https://doi.org/10.1063/1.1543154

 C. Hartwigsen, S. Goedecker, J. Hutter.
 Phys. Rev. B 58, 3641-3662 (1998).
 Relativistic separable dual-space Gaussian pseudopotentials from H to Rn.
 https://doi.org/10.1103/PhysRevB.58.3641

 G. Lippert, J. Hutter, M. Parrinello.
 Mol. Phys. 92, 477-487 (1997).
 A hybrid Gaussian and plane wave density functional scheme.
 https://doi.org/10.1080/002689797170220

 S. Goedecker, M. Teter, J. Hutter.
 Phys. Rev. B 54, 1703-1710 (1996).
 Separable dual-space Gaussian pseudopotentials.
 https://doi.org/10.1103/PhysRevB.54.1703

 J. P. Perdew, K. Burke, M. Ernzerhof.
 Phys. Rev. Lett. 77, 3865-3868 (1996).
 Generalized gradient approximation made simple.
 https://doi.org/10.1103/PhysRevLett.77.3865


 -------------------------------------------------------------------------------
 -                                                                             -
 -                                T I M I N G                                  -
 -                                                                             -
 -------------------------------------------------------------------------------
 SUBROUTINE                       CALLS  ASD         SELF TIME        TOTAL TIME
                                MAXIMUM       AVERAGE  MAXIMUM  AVERAGE  MAXIMUM
 CP2K                                 1  1.0    0.072    0.094 1194.854 1194.859
 qs_energies                          1  2.0    0.006    0.009 1193.173 1193.180
 scf_env_do_scf                       1  3.0    0.000    0.000 1191.706 1191.712
 qs_ks_update_qs_env                 31  5.0    0.000    0.000 1155.239 1155.243
 rebuild_ks_matrix                   28  6.0    0.000    0.000 1155.165 1155.169
 qs_ks_build_kohn_sham_matrix        28  7.0    0.004    0.005 1155.164 1155.169
 hfx_ks_matrix                       28  8.0    0.002    0.002 1064.245 1064.268
 integrate_four_center               28  9.0    1.410    1.874 1064.158 1064.179
 integrate_four_center_main          28 10.0    0.032    0.035  996.817 1023.119
 integrate_four_center_bin         1792 11.0  996.785 1023.088  996.785 1023.088
 scf_env_do_scf_inner_loop           28  4.0    0.001    0.008  891.658  891.921
 init_scf_loop                        3  4.0    0.000    0.000  299.915  299.927
 mp_sync                            167 11.0   34.133   70.321   34.133   70.321
 parallel_gemm_fm                   117 10.2    0.000    0.000   31.640   31.908
 parallel_gemm_fm_gemm              117 11.2    0.000    0.000   31.640   31.907
 cp_fm_gemm                         117 12.2   31.639   31.907   31.639   31.907
 admm_mo_merge_ks_matrix             28  8.0    0.000    0.000   29.962   29.984
 merge_ks_matrix_none                28  9.0    0.001    0.002   29.961   29.984
 qs_vxc_create                       56  8.0    0.001    0.001   28.344   28.350
 xc_vxc_pw_create                    56  9.0    0.141    0.175   28.343   28.349
 fft_wrap_pw1pw2                    930 10.8    0.019    0.029   24.614   25.941
 fft_wrap_pw1pw2_300                591 12.1    0.815    0.865   23.504   24.848
 -------------------------------------------------------------------------------

 The number of warnings for this run is : 2
 
 -------------------------------------------------------------------------------
  **** **** ******  **  PROGRAM ENDED AT                 2024-09-13 00:53:02.107
 ***** ** ***  *** **   PROGRAM RAN ON                                  nid02541
 **    ****   ******    PROGRAM RAN BY                                  bsertcan
 ***** **    ** ** **   PROGRAM PROCESS ID                                 14631
  **** **  *******  **  PROGRAM STOPPED IN /scratch/snx3000/bsertcan/MFU_sp/cl/k
                                           r/rep45
